[Molden Format]
[FREQ]
3.4
12.6
16.9
22.6
26.9
29.8
35.8
39.4
51.7
58.0
75.9
79.4
98.0
110.2
115.5
123.1
132.6
148.6
173.0
179.3
189.5
196.5
219.9
224.4
242.1
261.4
283.6
291.4
301.1
315.0
321.5
326.1
345.6
350.5
356.4
372.1
382.5
424.4
430.1
439.6
463.8
484.2
487.0
499.2
508.7
518.7
541.2
550.0
552.1
563.8
583.6
609.5
615.4
618.4
626.2
642.8
658.2
667.1
673.4
712.4
716.6
749.6
775.0
799.0
804.7
808.7
821.7
845.2
873.1
878.9
882.8
894.5
900.6
931.4
959.9
973.6
980.0
996.3
1007.5
1009.2
1014.9
1016.1
1021.0
1032.7
1039.5
1050.6
1070.9
1078.2
1080.9
1106.5
1126.3
1146.6
1166.2
1179.3
1182.5
1183.4
1185.3
1203.8
1218.9
1236.9
1243.7
1261.1
1270.7
1271.5
1276.8
1284.3
1286.9
1295.1
1301.2
1304.5
1316.7
1327.6
1330.2
1338.2
1341.0
1348.2
1354.6
1362.0
1367.7
1383.3
1394.1
1403.7
1427.9
1496.1
1501.8
1521.0
1528.4
1538.1
1552.2
1565.9
1568.3
1597.6
1601.3
1611.5
1645.8
1688.9
1699.9
1700.6
1708.6
1711.1
1739.6
1744.1
2311.0
2448.3
2651.9
2654.5
2668.3
2673.5
2739.9
2745.1
2746.0
2746.3
2748.1
2748.4
2752.8
2757.8
2763.6
2764.9
2766.1
2766.9
2767.7
2770.2
2774.2
2779.8
2782.1
       
[FR-COORD]
C -2.23271 -3.32875 0.250956
C 0.396842 -3.32875 0.250956
C 1.69149 -1.00647 0.250956
N 0.475833 1.22435 0.223366
C -2.09476 1.25346 0.266451
C -3.5472 -1.01913 0.261349
N -3.25694 3.57914 0.403079
C -6.20832 -0.935414 0.210138
N -8.39567 -0.834881 0.162705
C -3.60049 -5.73778 0.213917
C -3.15263 -7.44401 -1.7633
C -4.43613 -9.72151 -1.85741
C -6.17468 -10.2901 0.0701088
C -6.6267 -8.62528 2.06434
C -5.32733 -6.33757 2.11441
O -7.28867 -12.5776 -0.248499
C 4.46996 -0.881746 0.307269
C 5.83245 -2.57022 1.81244
C 8.45463 -2.41998 1.91184
C 9.73492 -0.584681 0.509092
C 8.37016 1.09396 -1.00609
C 5.74741 0.95469 -1.09831
C 12.5453 -0.421031 0.613594
C -9.18086 -13.2872 1.52047
C 1.55468 7.5058 -5.36531
C -1.9313 5.96246 0.158737
C 0.659514 6.28523 1.28596
C 2.32039 6.97933 -0.689939
C 0.862282 7.06606 -3.0024
C 1.49364 6.01216 3.7358
C 4.06593 6.43811 4.219
C 5.70716 7.1203 2.28128
C 4.85376 7.40697 -0.209571
O -1.66164 6.43357 -2.54338
O -3.60522 7.77547 1.08924
O 2.20966 7.96312 -7.40527
H 1.44148 -5.09489 0.24094
H -5.17936 3.67684 0.41744
H -1.79789 -6.95873 -3.24182
H -4.13453 -11.0621 -3.3845
H -7.96652 -9.06993 3.54985
H -5.6671 -5.00758 3.65473
H 4.8445 -3.99299 2.92794
H 9.5091 -3.73485 3.08743
H 9.3583 2.51976 -2.10667
H 4.66725 2.29337 -2.24178
H 13.3496 -1.46284 2.21873
H 13.2026 1.54258 0.778189
H 13.3997 -1.21075 -1.11116
H -9.79388 -15.1303 0.786315
H -10.7542 -11.9436 1.50233
H -8.37753 -13.4955 3.41417
H 0.209382 5.46244 5.24531
H 4.78006 6.21266 6.13273
H 7.69874 7.43002 2.69683
H 6.15333 7.93949 -1.70094
H -4.33787 8.80386 -0.281947

[FR-NORM-COORD]
Vibration 1
0.00113384 0.000377945 0.00264562
0.00113384 -0.000944863 0.00377945
0.00264562 -0.00170075 0.0100155
0.00396842 -0.00075589 0.0124722
0.00377945 0.000188973 0.0102045
0.00264562 0.000944863 0.00642507
0.00396842 0.000377945 0.0119053
0.00264562 0.00226767 0.0062361
0.00264562 0.00321253 0.0062361
0.000377945 0.000944863 -0.0020787
0 0.00472431 -0.00548021
0.000188973 0.00472431 -0.00944863
0.00075589 0.000944863 -0.0100155
0.000944863 -0.00264562 -0.00699199
0.00075589 -0.00264562 -0.00302356
0.00132281 0.00113384 -0.013795
0.00264562 -0.00529123 0.0147399
-0.00283459 -0.013606 0.0100155
-0.00226767 -0.0202201 0.013606
0.00321253 -0.0187083 0.0215429
0.00831479 -0.00850377 0.027401
0.00831479 -0.00188973 0.0238105
0.00302356 -0.0154958 0.0260782
0.00264562 -0.00283459 -0.013984
-0.0296687 0.00585815 -0.0130391
0.00132281 0.00075589 0.00529123
0.00661404 0.00434637 -0.00831479
-0.00434637 0.0062361 -0.0170075
-0.0162516 0.00359048 -0.00944863
0.0192752 0.00736993 -0.0122832
0.020787 0.0128501 -0.0251334
0.00982658 0.0149288 -0.0336371
-0.00283459 0.0113384 -0.0296687
-0.0128501 -0.000377945 0.00340151
0.00472431 0.000188973 0.0126612
-0.0417629 0.00718096 -0.0164406
0.000188973 -0.00151178 0.000377945
0.00377945 -0.000566918 0.0143619
-0.000377945 0.0075589 -0.00491329
0 0.00774788 -0.0120942
0.00132281 -0.00548021 -0.0075589
0.00075589 -0.00548021 -0.000566918
-0.00699199 -0.0154958 0.00396842
-0.0075589 -0.0272121 0.0105825
0.013606 -0.0062361 0.0351489
0.0124722 0.00529123 0.0283459
0.0262672 -0.250011 -0.138139
-0.0202201 -0.0315584 0.321064
0.00151178 0.257003 -0.0986437
0.00302356 -0.00188973 -0.0170075
0.0020787 -0.00359048 -0.0107714
0.00377945 -0.00585815 -0.0149288
0.027779 0.00548021 -0.00566918
0.0306136 0.0154958 -0.0285349
0.0111494 0.0198421 -0.0434637
-0.0113384 0.0130391 -0.0364717
-0.00245664 -0.000566918 0.0158737
Vibration 2
-0.00340151 0.000944863 -0.00982658
-0.00340151 0.00151178 -0.0103935
-0.00377945 0.00170075 -0.0154958
-0.0041574 0.00132281 -0.0196532
-0.0041574 0.000944863 -0.0190862
-0.00396842 0.00075589 -0.0154958
-0.00434637 0.000944863 -0.0222988
-0.00396842 0 -0.0160627
-0.00396842 -0.00075589 -0.0168186
-0.00245664 0.000188973 -0.00113384
-0.00245664 -0.00680301 0.00491329
0.000377945 -0.00888171 0.0151178
0.00340151 -0.00377945 0.0194642
0.00283459 0.00377945 0.0130391
-0.000188973 0.00566918 0.00264562
0.00699199 -0.00699199 0.0302356
-0.00377945 0.00151178 -0.0160627
-0.00453534 0.00529123 -0.0117163
-0.0041574 0.00377945 -0.0128501
-0.00359048 -0.00151178 -0.0185193
-0.00321253 -0.0041574 -0.0222988
-0.00321253 -0.00245664 -0.0211649
-0.00396842 0.00472431 -0.0188973
0.0113384 -0.00359048 0.0364717
0.0292908 0.0168186 0.0147399
-0.0020787 0.000944863 -0.0096376
-0.00793685 -0.00434637 0.00566918
0.00359048 -0.000377945 0.0168186
0.0160627 0.00850377 0.00925966
-0.0215429 -0.0132281 0.00925966
-0.0236216 -0.0187083 0.0243775
-0.0120942 -0.0153068 0.0353379
0.00170075 -0.00585815 0.0317474
0.0130391 0.00850377 -0.00661404
-0.00604712 -0.00075589 -0.013606
0.0410071 0.0241885 0.0200311
-0.00321253 0.00151178 -0.00642507
-0.00434637 0.00151178 -0.0264562
-0.00472431 -0.0107714 0.00151178
0.000566918 -0.0143619 0.0202201
0.00472431 0.00812582 0.0158737
-0.000566918 0.0115273 -0.00245664
-0.00491329 0.00888171 -0.00736993
-0.00529123 0.0062361 -0.00888171
-0.00188973 -0.00774788 -0.0257003
-0.00283459 -0.00510226 -0.0243775
0.0173855 -0.168753 -0.142485
-0.0241885 -0.00604712 0.200122
-0.0062361 0.209382 -0.113195
0.0147399 -0.00831479 0.0455424
0.00812582 -0.00736993 0.0326923
0.0147399 0.00699199 0.0360938
-0.0306136 -0.0156847 0.00075589
-0.034204 -0.0258892 0.02759
-0.013795 -0.0202201 0.0468652
0.0105825 -0.00340151 0.0404401
0.000944863 0.00283459 -0.0147399
Vibration 3
0.000566918 -0.00491329 -0.00736993
0.000566918 -0.00566918 0.00113384
0.000944863 -0.00604712 -0.00321253
0.00170075 -0.00566918 -0.0119053
0.00170075 -0.00472431 -0.0177634
0.00113384 -0.00434637 -0.0196532
0.0020787 -0.00453534 -0.020787
0.00132281 -0.00359048 -0.0328812
0.00170075 -0.00302356 -0.0445975
0 -0.00472431 -0.000188973
0.00944863 -0.0175745 0.0130391
0.0096376 -0.0181414 0.0217318
0.000377945 -0.00566918 0.0170075
-0.00944863 0.0075589 0.00396842
-0.00944863 0.00774788 -0.00472431
0.0020787 -0.00774788 0.0268341
0.00075589 -0.00566918 0.0041574
-0.00434637 0.00661404 0.0226767
-0.00472431 0.00850377 0.0313695
-0.000377945 -0.0020787 0.0213539
0.00472431 -0.0151178 0.00245664
0.00510226 -0.0166296 -0.00604712
-0.000566918 -0.00245664 0.0304246
-0.00661404 0.00396842 0.0224877
-0.0253223 0.0740773 0.00188973
0.00340151 -0.00340151 -0.00132281
0.00869274 -0.0162516 -0.00982658
0 0.00434637 -0.00982658
-0.0115273 0.0336371 -0.00151178
0.0200311 -0.0423299 -0.0164406
0.0226767 -0.0498888 -0.0238105
0.0143619 -0.0313695 -0.0243775
0.00264562 -0.00359048 -0.0173855
-0.00831479 0.0239995 0.0020787
0.00869274 -0.0115273 0.0241885
-0.0374166 0.107525 0.00548021
0.000377945 -0.00585815 0.0111494
0.00226767 -0.00396842 -0.0260782
0.0166296 -0.027401 0.0164406
0.0170075 -0.0281569 0.0319364
-0.0168186 0.0173855 0.000188973
-0.0166296 0.0175745 -0.0149288
-0.00812582 0.0151178 0.0300466
-0.00850377 0.0185193 0.0457314
0.00812582 -0.0238105 -0.00585815
0.00888171 -0.0260782 -0.020598
-0.0130391 0.0663294 0.0812582
0.00453534 0.00264562 -0.0532903
0.00661404 -0.0816362 0.0701088
-0.00245664 -0.00132281 0.0323143
-0.00680301 0.00340151 0.00529123
-0.0158737 0.0173855 0.0279679
0.0266451 -0.0574477 -0.0162516
0.0313695 -0.0710537 -0.0296687
0.0166296 -0.0383614 -0.0306136
-0.00377945 0.0111494 -0.0177634
0.00510226 0.00434637 0.0381725
Vibration 4
-0.000566918 0.00434637 0.00925966
-0.000377945 0.0062361 0.0122832
-0.00321253 0.00736993 0.00529123
-0.0041574 0.0062361 0.00113384
-0.00434637 0.00472431 0.00585815
-0.00226767 0.00359048 0.00718096
-0.00340151 0.00472431 0.00888171
-0.00226767 0.00226767 0.00604712
-0.00245664 0.00170075 0.00548021
0.00151178 0.00340151 0.00472431
0.0126612 0.00359048 0.00699199
0.013795 0.00340151 -0.000566918
0.00302356 0.00283459 -0.0103935
-0.0075589 0.00188973 -0.0120942
-0.00812582 0.00226767 -0.00434637
0.00453534 0.00302356 -0.0175745
-0.00302356 0.0107714 0.00151178
-0.00396842 0.0565028 0.0529123
-0.00396842 0.061983 0.0508336
-0.00472431 0.0202201 -0.0041574
-0.00472431 -0.0264562 -0.0561249
-0.00453534 -0.0300466 -0.0531013
-0.00510226 0.0296687 -0.00699199
-0.00699199 0.00340151 -0.0298577
-0.00283459 -0.0255113 0
0.000377945 0.00340151 0.00982658
0.0041574 -0.00642507 0.0041574
0.00359048 -0.0181414 -0.000188973
-0.00113384 -0.0119053 0.00302356
0.00831479 -0.00907068 0.00245664
0.0120942 -0.0253223 -0.0041574
0.0120942 -0.0385504 -0.00888171
0.00774788 -0.034393 -0.00680301
-0.00453534 0.00699199 0.0100155
0.00604712 0.00491329 0.0160627
-0.00396842 -0.0362827 -0.00283459
0.00226767 0.0075589 0.0187083
-0.00302356 0.00642507 0.0096376
0.020598 0.00396842 0.0143619
0.0222988 0.00359048 0.00075589
-0.0151178 0.00113384 -0.0192752
-0.0162516 0.00151178 -0.00566918
-0.00491329 0.0891951 0.0937304
-0.00434637 0.0988327 0.0920297
-0.00434637 -0.0597153 -0.0990216
-0.00510226 -0.0653845 -0.0931635
0.00566918 -0.0111494 -0.0391173
-0.0177634 0.0296687 0.047999
-0.0041574 0.0848487 -0.0313695
-0.00377945 0.00434637 -0.034582
-0.00585815 0.00472431 -0.0387394
-0.0188973 0.00170075 -0.0249444
0.00831479 0.00075589 0.0062361
0.0153068 -0.0283459 -0.00566918
0.0153068 -0.0525344 -0.0143619
0.00774788 -0.0449755 -0.0105825
0.00812582 0.0111494 0.0194642
Vibration 5
0.00510226 -0.00321253 0.0128501
0.00548021 -0.00075589 0.0202201
0.00453534 -0.000188973 0.0143619
0.00321253 -0.00075589 0.0113384
0.00321253 -0.00264562 0.0075589
0.00434637 -0.00340151 0.00245664
0.00075589 -0.00377945 0.00812582
0.00472431 -0.00226767 -0.0170075
0.00510226 0 -0.0349599
0.00718096 -0.0041574 0.0132281
0.0542351 -0.0308025 0.0466762
0.0538572 -0.0304246 0.0436527
0.00377945 -0.00302356 0.00661404
-0.0417629 0.0221098 -0.0245664
-0.0389284 0.0202201 -0.020787
0.00604712 -0.00396842 0.00642507
0.00453534 0.000188973 0.00585815
0.0119053 -0.0075589 -0.00944863
0.0128501 -0.0111494 -0.0245664
0.00642507 -0.00642507 -0.0241885
-0.000944863 0.00340151 -0.00680301
-0.00151178 0.00642507 0.00812582
0.0075589 -0.0113384 -0.0425188
-0.0496998 0.0281569 -0.0404401
-0.00585815 -0.00340151 0.00340151
-0.00302356 -0.0020787 0.00566918
-0.00359048 0.00396842 0.00510226
-0.00510226 0.00529123 0.00434637
-0.00510226 -0.000944863 0.0041574
-0.00321253 0.00925966 0.00548021
-0.00434637 0.0162516 0.00529123
-0.00585815 0.0177634 0.00453534
-0.00604712 0.0120942 0.00396842
-0.00377945 -0.00472431 0.00491329
-0.00585815 -0.00359048 0.00340151
-0.00699199 -0.00548021 0.00264562
0.00661404 0 0.0291018
0.000566918 -0.00604712 0.00510226
0.0910848 -0.0515895 0.0735103
0.0905179 -0.0504557 0.0685971
-0.0789905 0.0425188 -0.0517785
-0.0736993 0.0385504 -0.0440306
0.0173855 -0.0115273 -0.0096376
0.0183303 -0.0177634 -0.0372276
-0.00604712 0.00793685 -0.00529123
-0.00680301 0.0132281 0.020976
0.0177634 -0.0304246 -0.0600933
0.0107714 -0.013795 -0.0247554
-0.00585815 0.00736993 -0.0574477
-0.0377945 0.0221098 -0.0351489
-0.0421409 0.0360938 -0.103557
-0.106392 0.0478101 -0.0141729
-0.0020787 0.00812582 0.00604712
-0.00396842 0.020787 0.00566918
-0.00661404 0.0234326 0.00453534
-0.00718096 0.0132281 0.00340151
-0.00736993 -0.00642507 0.00226767
Vibration 6
-0.0194642 0.0187083 -0.00642507
-0.0192752 0.0143619 -0.000944863
-0.0147399 0.0113384 0.00529123
-0.0100155 0.013795 0.00793685
-0.0102045 0.0183303 0.0041574
-0.0149288 0.020976 -0.00453534
-0.00529123 0.020409 0.00907068
-0.0145509 0.0268341 -0.0119053
-0.0141729 0.0319364 -0.0181414
-0.0156847 0.0166296 -0.0119053
0.00925966 0.0109604 -0.00170075
0.0321253 -0.00188973 0.00377945
0.0292908 -0.00944863 -0.00075589
-0.00283459 0.000377945 -0.0164406
-0.0253223 0.0134171 -0.0219208
0.0614161 -0.0266451 0.0109604
-0.0143619 0.000188973 0.00680301
-0.0236216 -0.00566918 0.00907068
-0.0224877 -0.0247554 0.00321253
-0.0119053 -0.0381725 -0.00491329
-0.00302356 -0.0298577 -0.00377945
-0.00434637 -0.0105825 0.00226767
-0.0102045 -0.0634948 -0.0151178
0.0738883 -0.0461093 0.0164406
-0.00113384 -0.00850377 0.000377945
-0.000566918 0.0179524 0.00831479
0.00188973 0.0117163 0.00453534
0.00170075 0.00302356 0.00132281
-0.00075589 0.0041574 0.00302356
0.0041574 0.0130391 0.00396842
0.0062361 0.00529123 0
0.00604712 -0.00377945 -0.00321253
0.00377945 -0.00491329 -0.00264562
-0.00321253 0.0175745 0.00774788
0.00491329 0.0215429 0.0103935
-0.00151178 -0.0187083 -0.00188973
-0.0222988 0.0124722 -0.00151178
-0.00510226 0.0243775 0.00793685
0.0126612 0.0158737 0.00302356
0.0536682 -0.0075589 0.0130391
-0.00944863 -0.00264562 -0.0232436
-0.0489439 0.0198421 -0.0325033
-0.0319364 0.00434637 0.0143619
-0.0294797 -0.0296687 0.00396842
0.00510226 -0.0391173 -0.00850377
0.00283459 -0.00453534 0.00264562
-0.0171965 -0.0360938 0.0062361
0.0113384 -0.0670853 -0.0610381
-0.0228657 -0.111305 0.000377945
0.108848 -0.0642507 0.0326923
0.0491329 -0.075589 0.00321253
0.0763449 -0.0141729 0.0188973
0.0041574 0.0198421 0.00642507
0.00774788 0.0062361 -0.000566918
0.00774788 -0.0100155 -0.00642507
0.00377945 -0.0117163 -0.00510226
0.00642507 0.0241885 0.0115273
Vibration 7
0.00245664 -0.00170075 0.0285349
0.00226767 -0.000188973 0.0300466
0.00075589 0.00075589 0.0215429
0.000188973 0 0.00869274
0 -0.00151178 0.00680301
0.00113384 -0.00245664 0.0243775
-0.00226767 -0.00132281 -0.0170075
0.00075589 -0.00510226 0.0393063
0.000377945 -0.0075589 0.0548021
0.00453534 -0.00302356 0.0213539
0.00359048 0.0103935 0.00925966
0.00340151 0.0113384 -0.00604712
0.0041574 -0.00151178 -0.00907068
0.00718096 -0.0164406 0.00377945
0.00736993 -0.0166296 0.0190862
0.0020787 0.00188973 -0.0264562
0.000944863 -0.00245664 0.0179524
-0.00132281 0.0102045 0.034204
0 -0.00359048 0.0190862
0.00340151 -0.0304246 -0.0130391
0.00472431 -0.0391173 -0.0243775
0.00340151 -0.0245664 -0.00850377
0.00529123 -0.0502667 -0.0362827
-0.00170075 -0.00812582 -0.034582
0.00944863 0.0417629 -0.00472431
-0.00377945 -0.00151178 -0.0243775
-0.00982658 0.00736993 -0.0132281
-0.00321253 0.0100155 -0.00661404
0.00548021 0.00869274 -0.0120942
-0.0200311 0.0117163 -0.00925966
-0.0228657 0.0175745 0.00132281
-0.0160627 0.0187083 0.00736993
-0.00604712 0.0151178 0.00359048
0.00888171 -0.0156847 -0.0257003
-0.0100155 0.00188973 -0.0419519
0.0145509 0.0667073 0.00245664
0.00340151 0.000566918 0.0359048
-0.00245664 -0.00283459 -0.0188973
0.00264562 0.020787 0.0117163
0.0020787 0.0221098 -0.0156847
0.00907068 -0.027401 0.00226767
0.00888171 -0.02759 0.0289128
-0.00396842 0.0302356 0.0574477
-0.00132281 0.00585815 0.0308025
0.00736993 -0.0582036 -0.0468652
0.00472431 -0.0317474 -0.0179524
0.0105825 -0.0457314 -0.0360938
0.020976 -0.0540462 -0.0542351
-0.0141729 -0.0676522 -0.0379835
-0.00604712 -0.000188973 -0.0510226
0.00170075 -0.00377945 -0.0245664
-0.0041574 -0.0264562 -0.0357158
-0.0251334 0.0105825 -0.0141729
-0.0306136 0.0211649 0.00453534
-0.0181414 0.0222988 0.0154958
-0.00075589 0.0158737 0.00850377
-0.0107714 -0.0113384 -0.0512116
Vibration 8
-0.0149288 0.00132281 0.0020787
-0.0143619 -0.00188973 -0.0160627
-0.0103935 -0.00453534 -0.0183303
-0.00774788 -0.00302356 -0.0160627
-0.00699199 0.00132281 -0.00151178
-0.0113384 0.00359048 0.0187083
0.000377945 0.00529123 -0.00793685
-0.0117163 0.0115273 0.0610381
-0.0122832 0.020598 0.101478
-0.0126612 0.000188973 0.00132281
0.0187083 -0.0119053 0.0181414
0.0298577 -0.0179524 0.0166296
0.00699199 -0.0122832 -0.00226767
-0.0270231 0.000377945 -0.020598
-0.0360938 0.00548021 -0.0181414
0.0232436 -0.020409 -0.000377945
-0.0105825 -0.00377945 -0.0177634
-0.00925966 -0.0134171 -0.0298577
-0.0105825 -0.000566918 -0.0145509
-0.0130391 0.0222988 0.0130391
-0.0134171 0.02759 0.0194642
-0.0120942 0.013984 0.00359048
-0.0151178 0.0419519 0.0370386
0.00113384 -0.0162516 -0.0222988
0.0153068 0.0105825 -0.00566918
0.00982658 -0.000377945 -0.0117163
0.0103935 -0.00793685 -0.00982658
0.0124722 -0.00774788 -0.00793685
0.013795 -0.00151178 -0.00850377
0.00907068 -0.0149288 -0.0102045
0.0100155 -0.0221098 -0.00869274
0.0120942 -0.0211649 -0.00661404
0.0132281 -0.013795 -0.0062361
0.013795 -0.00491329 -0.0120942
0.0166296 0.00793685 -0.0151178
0.0179524 0.0200311 -0.00283459
-0.0168186 -0.00340151 -0.0257003
0.000944863 0.0124722 0.00132281
0.0355268 -0.0164406 0.0317474
0.0559359 -0.0272121 0.0298577
-0.0459203 0.00566918 -0.0359048
-0.0614161 0.0134171 -0.0304246
-0.00736993 -0.0302356 -0.0493218
-0.0096376 -0.00736993 -0.0230547
-0.0153068 0.0432747 0.0383614
-0.0130391 0.0185193 0.00944863
-0.0213539 0.0419519 0.0402512
-0.0302356 0.0459203 0.0495108
0.00510226 0.0540462 0.041385
0.0222988 -0.0257003 -0.0158737
-0.00585815 -0.0249444 -0.0566918
-0.0257003 0.0041574 -0.00869274
0.0075589 -0.0153068 -0.0117163
0.00907068 -0.0283459 -0.00907068
0.0126612 -0.0262672 -0.00529123
0.0147399 -0.0132281 -0.00472431
0.0181414 0.00604712 -0.0171965
Vibration 9
0.0119053 -0.000944863 -0.0330702
0.0117163 0.00302356 -0.0529123
0.00869274 0.00510226 -0.0421409
0.00774788 0.00453534 -0.0304246
0.00736993 0.000188973 -0.0166296
0.0103935 -0.00188973 -0.0117163
0.000944863 -0.0041574 -0.00151178
0.0096376 -0.00340151 0.0230547
0.00888171 -0.00359048 0.0555579
0.0134171 -0.00170075 -0.0217318
0.0151178 -0.0170075 -0.00774788
0.0113384 -0.0158737 0.0062361
0.00491329 0.00188973 0.00566918
0.00529123 0.0160627 -0.00604712
0.0100155 0.0132281 -0.0194642
-0.00151178 0.00302356 0.0194642
0.00888171 -0.000377945 -0.02759
-0.0119053 0.00661404 -0.000188973
-0.0124722 -0.00491329 0.0217318
0.00812582 -0.0241885 0.0153068
0.0289128 -0.0315584 -0.0117163
0.0285349 -0.0185193 -0.0323143
0.00812582 -0.0379835 0.0387394
-0.0211649 0.0308025 0.00982658
-0.0109604 -0.00774788 0.00434637
-0.0102045 0.00264562 0.00642507
-0.0115273 0.00869274 0.00699199
-0.0128501 0.0132281 0.0075589
-0.0124722 0.0096376 0.00718096
-0.0122832 0.0105825 0.00736993
-0.013795 0.0187083 0.00869274
-0.0149288 0.0234326 0.00944863
-0.0143619 0.0202201 0.00888171
-0.013606 0.0149288 0.00869274
-0.0187083 -0.00944863 0.0145509
-0.0115273 -0.0192752 0.00170075
0.0149288 0.00491329 -0.0702978
0.000377945 -0.0107714 0.00888171
0.0187083 -0.0302356 -0.00869274
0.0126612 -0.02759 0.0170075
0.0020787 0.0289128 -0.00510226
0.0111494 0.0234326 -0.027779
-0.0287238 0.0215429 0.0041574
-0.0289128 0.00132281 0.0434637
0.0453534 -0.0468652 -0.0166296
0.0444086 -0.0232436 -0.0521564
-0.0117163 -0.0279679 0.05518
0.0170075 -0.0400622 0.0272121
0.0194642 -0.0578256 0.0534792
-0.0287238 0.0294797 0.0194642
-0.0113384 0.0421409 -0.0134171
-0.0377945 0.0398732 0.0179524
-0.0113384 0.00699199 0.00680301
-0.0141729 0.0215429 0.00925966
-0.0160627 0.0296687 0.0103935
-0.0149288 0.0236216 0.00944863
-0.020787 -0.00434637 0.0190862
Vibration 10
-0.00944863 -0.0111494 -0.0109604
-0.00888171 -0.0177634 -0.013795
-0.00359048 -0.020787 -0.0062361
0.00264562 -0.0173855 0.00944863
0.00321253 -0.0111494 0.013795
-0.00283459 -0.00718096 -0.000566918
0.0122832 -0.0075589 0.0355268
-0.00245664 0.00264562 -0.00888171
-0.00170075 0.0124722 -0.0177634
-0.0162516 -0.00736993 -0.0143619
-0.013606 -0.013984 -0.00812582
-0.0134171 -0.0143619 -0.00321253
-0.0162516 -0.00925966 -0.0041574
-0.0243775 0 -0.013795
-0.0243775 0.000188973 -0.0188973
-0.0103935 -0.0132281 0.00472431
-0.00359048 -0.0198421 -0.0120942
0.000377945 0.000944863 0.00699199
-0.000566918 0.0168186 0.0132281
-0.00680301 0.0100155 -0.00113384
-0.0109604 -0.0158737 -0.0264562
-0.00982658 -0.0298577 -0.0311805
-0.00850377 0.0330702 0.0113384
0.0113384 -0.0238105 0.0236216
0.00302356 0.0105825 0.00642507
0.0181414 -0.0134171 0.0100155
0.0170075 0.0041574 0.00793685
0.0117163 0.0075589 0.00453534
0.0113384 -0.0141729 0.0041574
0.0192752 0.027401 0.0096376
0.0143619 0.0589595 0.00850377
0.00850377 0.0642507 0.00548021
0.00718096 0.0368497 0.00283459
0.0198421 -0.0478101 0.0041574
0.0213539 0.000944863 -0.0111494
-0.00340151 0.027401 0.00812582
-0.0124722 -0.0196532 -0.020976
0.0126612 -0.00113384 0.0430858
-0.0103935 -0.0192752 -0.00699199
-0.0096376 -0.0194642 0.00188973
-0.0300466 0.00680301 -0.0170075
-0.0298577 0.0062361 -0.0251334
0.0041574 0.00680301 0.0175745
0.00321253 0.0353379 0.0304246
-0.0151178 -0.0236216 -0.0402512
-0.013795 -0.0478101 -0.047999
-0.00718096 0.0430858 0.0171965
-0.0264562 0.0393063 0.0111494
0.00642507 0.0376055 0.0170075
0.0251334 -0.034393 0.0383614
-0.00283459 -0.0404401 0.0281569
0.027779 -0.00510226 0.0187083
0.0243775 0.0238105 0.0126612
0.0151178 0.0806913 0.0107714
0.00453534 0.0903289 0.00491329
0.00245664 0.0396842 -0.000377945
0.0096376 -0.0255113 -0.0243775
Vibration 11
-0.00831479 -0.00680301 0.0200311
-0.00793685 -0.0111494 0.0296687
-0.00359048 -0.013795 0.00566918
0.000188973 -0.0115273 -0.0215429
0.000566918 -0.00642507 -0.0226767
-0.00396842 -0.00434637 -0.00132281
0.00566918 -0.00359048 -0.0525344
-0.00396842 -0.000944863 0.00283459
-0.00396842 0.000566918 0.00869274
-0.0103935 -0.0062361 0.0194642
-0.0075589 0.00075589 0.013606
-0.0062361 0.000944863 0.00264562
-0.00831479 -0.00774788 -0.00151178
-0.0117163 -0.0151178 0.00377945
-0.0130391 -0.013795 0.013984
-0.00585815 -0.00718096 -0.013984
-0.00377945 -0.0124722 0.00302356
0.00170075 -0.00472431 0.00661404
0.00151178 0.00245664 0.00377945
-0.00453534 0.00151178 -0.00283459
-0.00982658 -0.00661404 -0.00718096
-0.00944863 -0.0134171 -0.00396842
-0.00491329 0.0105825 -0.00548021
0.00453534 -0.0262672 -0.0107714
0.0168186 -0.0102045 -0.00377945
0.00888171 -0.00132281 -0.00548021
0.0119053 -0.0115273 -0.00850377
-0.000566918 0.0470542 0.00188973
-0.00132281 0.0508336 0.00264562
0.0221098 -0.048377 -0.0158737
0.0151178 -0.0117163 -0.0113384
-0.000944863 0.0629279 0.00132281
-0.00888171 0.0905179 0.00736993
-0.00453534 0.0665184 0.00453534
0.0075589 -0.0251334 0.0427078
0.0353379 -0.0491329 -0.00642507
-0.0113384 -0.0132281 0.0512116
0.00548021 0.00113384 -0.0563138
-0.00548021 0.00661404 0.0173855
-0.00377945 0.00699199 -0.00226767
-0.013795 -0.0211649 0
-0.0168186 -0.0194642 0.0179524
0.00642507 -0.00396842 0.0117163
0.00585815 0.00888171 0.00699199
-0.0143619 -0.0075589 -0.0122832
-0.0134171 -0.0192752 -0.00699199
0 0.0143619 -0.00548021
-0.0113384 0.0130391 -0.00736993
-0.00377945 0.0124722 -0.00566918
0.0100155 -0.0247554 -0.0194642
-0.00170075 -0.0332592 0.00340151
0.0128501 -0.0338261 -0.0151178
0.034582 -0.101478 -0.0243775
0.0222988 -0.0389284 -0.0171965
-0.00774788 0.0997775 0.00604712
-0.0217318 0.145887 0.0158737
0.0396842 0.0383614 0.0733214
Vibration 12
-0.0154958 0.00529123 -0.00302356
-0.0156847 0.00321253 -0.00812582
-0.013984 0.00170075 -0.0111494
-0.0120942 0.00226767 -0.00642507
-0.0120942 0.00453534 -0.000377945
-0.0145509 0.00585815 -0.00396842
-0.00283459 0.00850377 0.0128501
-0.0143619 0.00472431 -0.0134171
-0.0141729 0.000944863 -0.0255113
-0.00548021 -0.00075589 0.00472431
-0.0190862 0.0115273 -0.00944863
0.00283459 -0.00113384 0.00170075
0.0360938 -0.0239995 0.0247554
0.0540462 -0.0387394 0.0410071
0.0328812 -0.0260782 0.0309915
0.0572587 -0.0364717 0.0362827
-0.0143619 -0.00170075 -0.0124722
-0.0192752 -0.00340151 -0.0100155
-0.0196532 -0.00396842 -0.00302356
-0.0162516 -0.00321253 0.00132281
-0.0113384 -0.00434637 -0.00453534
-0.0111494 -0.00359048 -0.0115273
-0.0170075 -0.000377945 0.013795
-0.061983 0.0326923 -0.0633058
0.00566918 0.00132281 0.00245664
0.00907068 0.00188973 0.00585815
0.0113384 0.000188973 0.00283459
0.00850377 0.0020787 0.000944863
0.00680301 -0.00245664 0.0020787
0.0153068 0.00491329 0.0020787
0.0143619 0.0143619 -0.000566918
0.0105825 0.0183303 -0.00245664
0.0075589 0.0111494 -0.0020787
0.00869274 -0.00831479 0.00396842
0.0190862 0.0130391 0.00245664
0.00661404 0.00377945 0.00340151
-0.0171965 0.0020787 -0.00982658
-0.00188973 0.0168186 0.0164406
-0.0476211 0.0317474 -0.0289128
-0.0075589 0.00793685 -0.00831479
0.0865495 -0.061983 0.0631168
0.0466762 -0.0366607 0.0428968
-0.0226767 -0.00321253 -0.0126612
-0.0228657 -0.00434637 -0.000566918
-0.00774788 -0.00529123 -0.00245664
-0.00793685 -0.0041574 -0.0149288
-0.0232436 0.000944863 0.0179524
-0.0196532 0.000377945 0.0162516
-0.00812582 0 0.0179524
-0.0859825 0.0519675 -0.0914627
-0.0158737 0.0856046 -0.147399
-0.166863 0.0096376 -0.0215429
0.0187083 0.00283459 0.0041574
0.0164406 0.0194642 -0.00075589
0.0096376 0.0268341 -0.0041574
0.00434637 0.013606 -0.00396842
0.0168186 0.00774788 -0.000188973
Vibration 13
-0.00151178 0.00321253 0.0357158
-0.00132281 -0.00321253 0.0285349
0.00604712 -0.00736993 -0.0151178
0.0124722 -0.00283459 -0.0313695
0.0128501 0.00302356 -0.00736993
0.00604712 0.0062361 0.0124722
0.00907068 0.00113384 -0.0041574
0.00680301 0.0162516 -0.00642507
0.00793685 0.0292908 -0.0300466
-0.00302356 0.0041574 0.0398732
0.00472431 0.0151178 0.0311805
0.00566918 0.0164406 0.0120942
-0.000944863 0.00472431 0.00302356
-0.00472431 -0.0096376 0.013984
-0.00642507 -0.00793685 0.0321253
-0.00302356 0.00982658 -0.0247554
0.00718096 -0.0222988 -0.0353379
0.0041574 -0.0289128 -0.0391173
0.00283459 -0.0230547 -0.0219208
0.00642507 -0.00944863 -0.00075589
0.0126612 -0.0215429 -0.0196532
0.0132281 -0.0279679 -0.0372276
0.00264562 0.0239995 0.0529123
0.0128501 -0.0230547 -0.0217318
-0.00831479 0.00283459 -0.000566918
-0.00510226 0.00925966 0
-0.00793685 0.013795 0.00302356
-0.00170075 -0.00510226 0.00151178
-0.00132281 0.0020787 0.00151178
-0.0166296 0.0291018 0.00736993
-0.0153068 0.0171965 0.0102045
-0.00604712 -0.013606 0.00718096
0.00113384 -0.0239995 0.00340151
-0.00566918 0.0175745 0.00245664
-0.0162516 -0.00321253 0.00377945
-0.020976 0.00302356 -0.00453534
-0.00718096 -0.00680301 0.0491329
0.00812582 -0.00548021 0.0062361
0.00982658 0.0245664 0.0389284
0.0102045 0.0260782 0.00453534
-0.00774788 -0.020976 0.00793685
-0.0117163 -0.0173855 0.0385504
0.00188973 -0.0353379 -0.0489439
-0.00132281 -0.0249444 -0.0202201
0.0164406 -0.0215429 -0.0162516
0.0179524 -0.0330702 -0.0474321
-0.0170075 0.0402512 0.0733214
-0.0249444 0.0328812 0.0593374
0.0474321 0.0285349 0.0733214
0.013606 -0.013984 -0.0449755
0.00812582 -0.0281569 0.0105825
0.027779 -0.048566 -0.0308025
-0.0241885 0.0502667 0.00869274
-0.0215429 0.0306136 0.013984
-0.00396842 -0.0283459 0.00812582
0.00869274 -0.0457314 0.00226767
-0.0245664 -0.00642507 0.00548021
Vibration 14
-0.000188973 -0.00699199 -0.0124722
0.00113384 -0.0190862 0.0062361
0.0119053 -0.0255113 0.02759
0.0221098 -0.0177634 0.0291018
0.0228657 -0.00585815 0.00170075
0.0128501 -0.00113384 -0.00680301
0.0158737 -0.00812582 -0.0285349
0.013795 0.0311805 0.00377945
0.0156847 0.0803134 0.0215429
-0.0156847 0.00151178 -0.0266451
-0.0334482 0.00491329 -0.0334482
-0.0260782 -0.000377945 -0.0196532
-0.00113384 -0.00888171 0.000188973
-0.00340151 0 -0.00774788
-0.0096376 0.00359048 -0.0202201
0.0353379 -0.0325033 0.0387394
0.0128501 -0.0266451 0.0258892
0.0313695 -0.0162516 0.0198421
0.0321253 0.00113384 0.00548021
0.013984 0.00661404 -0.00377945
-0.00472431 -0.00604712 -0.00113384
-0.00377945 -0.0226767 0.0145509
0.0132281 0.0309915 -0.020409
-0.0190862 0.00850377 -0.00283459
-0.00566918 0.00340151 -0.00585815
-0.00472431 0.0041574 -0.00831479
-0.00944863 0.0100155 -0.00377945
-0.00264562 0 -0.00132281
0 0.0109604 -0.00264562
-0.0211649 0.0166296 0.00075589
-0.020787 0.00453534 0.00793685
-0.0105825 -0.0162516 0.00925966
-0.000944863 -0.0173855 0.00548021
-0.00604712 0.0317474 -0.00359048
-0.0258892 -0.0211649 0.00359048
-0.0202201 -0.00396842 -0.0122832
-0.00680301 -0.0236216 0.00453534
0.013984 -0.0170075 -0.0355268
-0.0500777 0.00944863 -0.0470542
-0.0351489 0 -0.0217318
0.00453534 0.000566918 -0.000377945
-0.00604712 0.00661404 -0.0219208
0.0461093 -0.0215429 0.0257003
0.0464873 0.00982658 0.00226767
-0.0198421 -0.00264562 -0.0105825
-0.0173855 -0.0309915 0.0171965
0.0317474 0.0419519 -0.0226767
-0.00302356 0.0372276 -0.0291018
0.0100155 0.034582 -0.0236216
0.0124722 -0.0145509 0.0285349
-0.0234326 0.00226767 -0.0918407
-0.0806913 0.0638727 0.0292908
-0.0300466 0.0294797 -0.0020787
-0.0283459 0.00982658 0.0113384
-0.00907068 -0.0309915 0.0134171
0.00774788 -0.0308025 0.00831479
-0.0175745 -0.00340151 0.0122832
Vibration 15
-0.00075589 -0.00718096 -0.00529123
-0.00113384 -0.00680301 -0.0041574
-0.00226767 -0.0062361 0.00661404
-0.00075589 -0.00510226 0.0145509
-0.00075589 -0.00359048 0.00491329
0.000377945 -0.00566918 -0.000566918
-0.00264562 -0.00396842 -0.00718096
0 -0.0192752 0.00132281
-0.00132281 -0.0444086 0.00472431
-0.00188973 -0.00774788 -0.00680301
-0.00321253 -0.0111494 -0.0041574
-0.00434637 -0.0111494 -0.00113384
-0.00529123 -0.00850377 -0.00132281
-0.00453534 -0.00491329 -0.00396842
-0.00283459 -0.00585815 -0.00680301
-0.0062361 -0.00869274 0.00283459
-0.0020787 -0.00774788 0.00434637
0.00170075 -0.00850377 0
0.00170075 -0.00453534 -0.00302356
-0.00283459 0 -0.00132281
-0.00661404 -0.00264562 -0.00075589
-0.0062361 -0.00680301 0.0020787
-0.00340151 0.00982658 0.000377945
-0.00604712 -0.00510226 0.00472431
0.020787 0.0102045 0.0143619
-0.0194642 0.00925966 0.0166296
-0.0107714 0.0177634 -0.00264562
-0.0198421 -0.0264562 -0.0236216
-0.0430858 -0.00321253 -0.00793685
0.00982658 0.082581 -0.00226767
0.0179524 0.0763449 -0.0366607
0.0141729 -0.00774788 -0.0697309
-0.00661404 -0.0583925 -0.0670853