[Molden Format]
[FREQ]
13.8
16.4
23.0
26.9
31.5
34.7
41.3
52.7
58.7
74.7
88.8
91.3
98.3
108.5
129.2
131.1
137.5
147.0
167.8
178.5
183.3
196.2
221.3
242.8
254.4
256.5
284.6
300.9
310.0
320.2
341.4
352.1
360.5
361.8
373.8
389.6
418.1
427.1
454.2
474.8
488.3
505.5
512.5
527.7
544.4
560.6
562.0
573.9
591.8
610.5
613.9
618.4
631.7
643.9
657.4
671.1
685.3
693.1
699.1
727.7
741.0
761.3
768.7
780.4
783.3
830.6
834.6
846.1
870.2
884.2
884.6
895.4
903.5
942.9
945.7
974.8
1007.3
1009.5
1010.3
1013.9
1016.3
1019.3
1034.9
1045.9
1062.1
1075.1
1082.7
1086.5
1109.4
1127.1
1141.2
1178.3
1179.1
1187.9
1188.3
1201.5
1213.2
1218.6
1249.8
1263.4
1265.1
1274.1
1280.9
1285.3
1291.9
1294.2
1297.6
1309.6
1324.0
1334.3
1341.4
1343.0
1349.4
1353.2
1363.8
1371.5
1378.1
1389.0
1391.1
1421.5
1427.9
1473.7
1480.1
1518.6
1525.3
1536.0
1542.0
1565.7
1567.6
1582.7
1587.7
1607.2
1652.3
1695.5
1697.1
1700.3
1702.1
1704.3
1704.8
1723.0
1749.7
1768.7
1850.3
2446.6
2560.7
2637.0
2651.8
2654.0
2663.0
2671.6
2736.8
2741.0
2741.5
2742.9
2743.8
2744.4
2745.2
2753.8
2757.2
2761.5
2763.5
2764.7
2765.8
2767.4
2778.1
       
[FR-COORD]
C -1.51159 -4.29761 0.0238105
C 1.16294 -4.29761 0.0238105
C 2.46534 -2.0409 0.0238105
N 1.21698 0.227523 0.0258892
C -1.436 0.345064 0.0646286
C -2.81324 -2.02994 0.0222988
N -2.61141 2.57097 0.198043
C -5.47756 -1.96739 -0.0740773
N -7.66511 -1.92469 -0.158737
C -2.8276 -6.73177 -0.00359048
C -2.23951 -8.50226 -1.88746
C -3.46689 -10.81 -1.96135
C -5.29274 -11.3501 -0.106014
C -5.88669 -9.61984 1.79467
C -4.64136 -7.30341 1.82585
O -6.33644 -13.6708 -0.392874
C 5.24002 -1.89634 0.0117163
C 6.61877 -3.32082 1.75556
C 9.24359 -3.18608 1.77313
C 10.5067 -1.6314 0.0504557
C 9.11831 -0.218452 -1.70075
C 6.49537 -0.346954 -1.72192
C 13.3141 -1.44413 0.0839038
C -8.28191 -14.3714 1.323
C -1.53691 4.95694 0.224499
C -3.05777 7.13995 -0.0130391
C -1.65899 9.56334 -0.139651
C 0.981524 9.54557 -0.161572
C 2.37028 7.1632 0.0425188
C -2.96706 11.8465 -0.285349
C -1.6263 14.1036 -0.458825
C 1.01327 14.0864 -0.494919
C 2.32474 11.8114 -0.348465
O 4.61717 6.82191 -0.0993996
O -5.36607 7.03866 -0.177067
O 1.02858 5.00777 0.615106
H 2.1781 -6.08322 0.0200311
H -4.57843 2.62955 0.153824
H -0.819763 -8.04437 -3.31363
H -3.05928 -12.2004 -3.41851
H -7.30039 -10.0378 3.22028
H -5.0879 -5.92864 3.30097
H 5.63649 -4.52533 3.11068
H 10.3151 -4.29062 3.1377
H 10.0926 1.00118 -3.04284
H 5.43202 0.760993 -3.09934
H 13.9248 0.369252 0.909336
H 14.1242 -1.54107 -1.82812
H 14.2138 -2.94665 1.19809
H -8.79346 -16.2668 0.646853
H -9.8982 -13.0892 1.16993
H -7.56174 -14.4645 3.25883
H -5.03423 11.8251 -0.265695
H -2.64089 15.8915 -0.57013
H 2.04657 15.8591 -0.637027
H 4.38813 11.7807 -0.372087
H 2.21533 1.90768 0.109415

[FR-NORM-COORD]
Vibration 1
-0.00548021 0.000377945 -0.0153068
-0.00548021 0.00075589 -0.013984
-0.00585815 0.000944863 -0.0181414
-0.00642507 0.00075589 -0.0238105
-0.00642507 0.000377945 -0.0268341
-0.00585815 0 -0.0239995
-0.00642507 0.00075589 -0.0289128
-0.00566918 -0.00075589 -0.027779
-0.00566918 -0.00132281 -0.0309915
-0.00434637 -0.000377945 -0.00434637
-0.00566918 -0.00850377 0.00302356
-0.00170075 -0.0109604 0.0173855
0.00377945 -0.00529123 0.0243775
0.00340151 0.00396842 0.0158737
-0.00075589 0.00642507 0.00151178
0.00944863 -0.00982658 0.0402512
-0.00604712 0.0020787 -0.0175745
-0.00548021 0.0115273 -0.0102045
-0.00566918 0.013795 -0.0100155
-0.00642507 0.00661404 -0.0171965
-0.00680301 -0.00359048 -0.0249444
-0.00680301 -0.00585815 -0.0251334
-0.00661404 0.0100155 -0.0162516
0.0211649 -0.00850377 0.0540462
-0.00377945 -0.000377945 -0.0219208
0.00226767 0.00151178 -0.0417629
0.0062361 0.000944863 -0.0100155
0.00661404 -0.00075589 0.0377945
0.00132281 -0.00264562 0.0506447
0.0105825 0.00245664 -0.0238105
0.0153068 0.00245664 0.0111494
0.0160627 0.00075589 0.0599043
0.0117163 -0.00075589 0.0735103
0.00359048 -0.00321253 0.0865495
0.00472431 0.00434637 -0.0784236
-0.00907068 -0.00510226 0.0154958
-0.00491329 0.000944863 -0.00944863
-0.00585815 0.0020787 -0.0421409
-0.00944863 -0.0130391 -0.00226767
-0.00245664 -0.0175745 0.0234326
0.00642507 0.00907068 0.0202201
-0.00075589 0.0134171 -0.00529123
-0.00510226 0.0173855 -0.00472431
-0.00510226 0.0217318 -0.0041574
-0.00736993 -0.0096376 -0.0308025
-0.00736993 -0.013984 -0.0311805
-0.00925966 0.0113384 -0.0170075
-0.00548021 0.00982658 -0.0156847
-0.00548021 0.0117163 -0.0147399
0.0311805 -0.0175745 0.0718096
0.0124722 -0.0202201 0.0495108
0.0291018 0.0119053 0.0521564
0.0102045 0.00396842 -0.061983
0.0187083 0.00359048 0.00075589
0.0198421 0.00075589 0.0874943
0.0120942 -0.00226767 0.112061
-0.00661404 0.000944863 -0.020409
Vibration 2
0.00529123 -0.00113384 -0.0115273
0.00529123 -0.00321253 -0.00245664
0.00699199 -0.00434637 -0.0096376
0.00907068 -0.00302356 -0.0236216
0.00907068 -0.000944863 -0.0283459
0.00718096 -0.000188973 -0.027401
0.00907068 -0.00075589 -0.0330702
0.00774788 0.00151178 -0.0423299
0.00831479 0.00283459 -0.05518
0.00264562 0.000188973 -0.00170075
0.00396842 -0.0113384 0.0096376
0.000944863 -0.0100155 0.020598
-0.00321253 0.00302356 0.0202201
-0.00472431 0.0147399 0.00907068
-0.00188973 0.0132281 -0.00188973
-0.00566918 0.00245664 0.0319364
0.00736993 -0.00812582 -0.000944863
-0.00151178 -0.00396842 0.0096376
-0.00113384 -0.0103935 0.0170075
0.00793685 -0.020976 0.0141729
0.0166296 -0.0239995 0.00472431
0.0162516 -0.0177634 -0.00283459
0.00831479 -0.0292908 0.0213539
-0.00944863 0.0149288 0.0328812
0.0062361 0.000188973 -0.0294797
-0.00170075 -0.00151178 0.00340151
-0.0103935 0.00377945 0.0181414
-0.0105825 0.0124722 -0.00075589
-0.00113384 0.0147399 -0.0383614
-0.0188973 0.00132281 0.0540462
-0.02759 0.0075589 0.0706758
-0.02759 0.0166296 0.0521564
-0.0192752 0.0190862 0.0164406
-0.000566918 0.0247554 -0.0542351
-0.00302356 -0.00718096 0.0228657
0.0105825 0.0020787 -0.0610381
0.00377945 -0.0041574 0.0096376
0.00869274 -0.00170075 -0.0313695
0.00736993 -0.0211649 0.00982658
0.00170075 -0.0188973 0.0292908
-0.00812582 0.0247554 0.00869274
-0.00283459 0.0222988 -0.0107714
-0.00850377 0.00396842 0.0115273
-0.00812582 -0.00774788 0.0249444
0.0238105 -0.0319364 0.00283459
0.0232436 -0.020598 -0.0105825
0.0115273 -0.0292908 0.0188973
0.0132281 -0.0359048 0.0238105
0.000944863 -0.0294797 0.0270231
-0.00907068 0.0107714 0.0444086
-0.00831479 0.0151178 0.020787
-0.013606 0.027401 0.0349599
-0.0187083 -0.00566918 0.069164
-0.034204 0.00566918 0.0986437
-0.034582 0.0217318 0.0659514
-0.0194642 0.0260782 0.00151178
0.0103935 -0.00396842 -0.0326923
Vibration 3
-0.0147399 0.0119053 -0.0124722
-0.0149288 0.00888171 -0.0134171
-0.0117163 0.00718096 -0.00188973
-0.00888171 0.00850377 0.00548021
-0.00907068 0.0115273 0.000944863
-0.0122832 0.0130391 -0.00321253
-0.00661404 0.0128501 -0.00264562
-0.0122832 0.0154958 0.00434637
-0.0126612 0.0168186 0.0111494
-0.0124722 0.0107714 -0.0168186
-0.0154958 0.0185193 -0.0251334
0.000377945 0.00982658 -0.0194642
0.0202201 -0.00680301 -0.00472431
0.0171965 -0.0111494 -0.00188973
0.000377945 -0.00188973 -0.00831479
0.0419519 -0.0179524 0.00510226
-0.0113384 -0.00113384 0.00491329
-0.020787 -0.027401 -0.00869274
-0.0200311 -0.0445975 -0.0062361
-0.00944863 -0.0351489 0.0102045
0.000188973 -0.00585815 0.0262672
-0.00075589 0.0111494 0.0236216
-0.00793685 -0.0572587 0.0100155
0.0839038 -0.0493218 0.0394953
-0.00434637 0.0117163 0.00113384
-0.00151178 0.013984 0.00302356
0.00170075 0.0120942 0.000377945
0.00170075 0.00812582 -0.00510226
-0.00151178 0.0062361 -0.0062361
0.00491329 0.013795 0.00188973
0.00774788 0.0119053 -0.0020787
0.00774788 0.00793685 -0.00774788
0.00472431 0.00604712 -0.00925966
-0.00245664 0.0020787 -0.0109604
-0.00188973 0.0173855 0.00566918
-0.0041574 0.00925966 0.000188973
-0.0171965 0.0075589 -0.0219208
-0.00661404 0.0149288 -0.00340151
-0.0291018 0.0304246 -0.034771
-0.000377945 0.0147399 -0.0243775
0.027779 -0.0213539 0.00548021
-0.00132281 -0.00548021 -0.00548021
-0.0289128 -0.0355268 -0.0217318
-0.027779 -0.0663294 -0.0175745
0.00850377 0.00283459 0.0402512
0.00718096 0.0336371 0.0355268
0.00699199 -0.0651955 0.0162516
-0.00982658 -0.0570697 0.00907068
-0.0190862 -0.0685971 0.00396842
0.112817 -0.0636838 0.0576366
0.055369 -0.0831479 0.0570697
0.114895 -0.0243775 0.0291018
0.00491329 0.0170075 0.0062361
0.0102045 0.0132281 -0.00075589
0.0100155 0.0062361 -0.0109604
0.00453534 0.00302356 -0.013795
-0.00718096 0.00718096 0.0126612
Vibration 4
-0.0109604 -0.00283459 -0.0162516
-0.0107714 -0.00396842 -0.0153068
-0.0105825 -0.0041574 -0.0164406
-0.0107714 -0.00434637 -0.0179524
-0.0103935 -0.00302356 -0.0109604
-0.0107714 -0.00245664 -0.0170075
-0.00718096 -0.0020787 0.00661404
-0.0103935 -0.00151178 -0.0236216
-0.0102045 -0.000188973 -0.0300466
-0.0107714 -0.00302356 -0.0128501
-0.0111494 -0.00680301 -0.00925966
-0.00642507 -0.00944863 -0.000566918
-0.00113384 -0.00869274 0.00491329
-0.00340151 -0.00321253 -0.000566918
-0.00850377 -0.000377945 -0.0096376
0.0062361 -0.0132281 0.0160627
-0.0109604 0.00283459 -0.0119053
-0.0096376 0.0187083 -0.000377945
-0.0105825 0.0404401 0.0141729
-0.013606 0.0462983 0.0171965
-0.0149288 0.0253223 0.00132281
-0.0134171 0.00340151 -0.0134171
-0.0158737 0.076156 0.0381725
0.020976 -0.0185193 0.0304246
-0.00132281 -0.00453534 0.013795
0.00680301 0.00226767 0.0243775
0.0181414 -0.0041574 0.0168186
0.0179524 -0.0166296 -0.00585815
0.00736993 -0.0234326 -0.0156847
0.0283459 0.00245664 0.0283459
0.0379835 -0.0041574 0.0162516
0.0374166 -0.0170075 -0.00718096
0.02759 -0.0234326 -0.0183303
0.00359048 -0.0376055 -0.0391173
0.00585815 0.0134171 0.0353379
-0.000377945 -0.0124722 0.0100155
-0.0111494 -0.0041574 -0.013606
-0.00680301 0.00151178 0.0120942
-0.0143619 -0.00793685 -0.0128501
-0.00604712 -0.0128501 0.00283459
-0.00132281 -0.00132281 0.0020787
-0.00982658 0.00340151 -0.013606
-0.0075589 0.0156847 -0.00170075
-0.00944863 0.0544241 0.0243775
-0.0171965 0.027779 0.00170075
-0.0147399 -0.0117163 -0.0245664
-0.0419519 0.0816362 0.0453534
-0.000188973 0.0876833 0.0444086
-0.00831479 0.0844708 0.0432747
0.0328812 -0.0268341 0.0449755
0.0100155 -0.0323143 0.0304246
0.0309915 -0.00075589 0.02759
0.0283459 0.0126612 0.0461093
0.0455424 0.00075589 0.0249444
0.0449755 -0.0221098 -0.0168186
0.0272121 -0.0336371 -0.0366607
-0.0096376 -0.0041574 -0.0175745
Vibration 5
0.00585815 -0.00661404 -0.0103935
0.00566918 -0.00718096 -0.0245664
0.00604712 -0.00699199 -0.0143619
0.00529123 -0.00718096 -0.00226767
0.00529123 -0.00680301 -0.00491329
0.00548021 -0.00680301 0.00283459
0.00491329 -0.0062361 -0.020409
0.00434637 -0.00793685 0.0281569
0.00359048 -0.0096376 0.0502667
0.00226767 -0.00491329 -0.00529123
-0.02759 0.00340151 -0.0221098
-0.0376055 0.00850377 -0.0192752
-0.0164406 0.00548021 0.000566918
0.0154958 -0.00359048 0.0188973
0.0245664 -0.00850377 0.0156847
-0.0317474 0.0124722 -0.000566918
0.00585815 -0.00359048 -0.00888171
0.00566918 -0.0359048 -0.0351489
0.00510226 -0.0251334 -0.0217318
0.00529123 0.0188973 0.0185193
0.0062361 0.048377 0.041385
0.00718096 0.0364717 0.027401
0.0041574 0.0349599 0.0366607
-0.0126612 0.0111494 0.020409
0.0041574 -0.00585815 -0.020409
0.00245664 -0.00699199 -0.0200311
-0.000188973 -0.00491329 -0.00888171
0 -0.00170075 -0.00226767
0.00245664 -0.00075589 -0.0096376
-0.00264562 -0.00585815 -0.00188973
-0.00491329 -0.00359048 0.0120942
-0.00491329 0 0.0190862
-0.00245664 0.000944863 0.0117163
0.00302356 0.00226767 -0.0075589
0.00302356 -0.00925966 -0.0255113
0.0041574 -0.00472431 -0.0211649
0.00491329 -0.00736993 -0.0398732
0.00491329 -0.00661404 -0.0224877
-0.0438416 0.00604712 -0.0372276
-0.0616051 0.0149288 -0.0323143
0.0326923 -0.00661404 0.0349599
0.0487549 -0.0149288 0.0289128
0.00566918 -0.0693529 -0.0646286
0.0041574 -0.0506447 -0.041574
0.00642507 0.0812582 0.0712427
0.00888171 0.0599043 0.0445975
-0.0109604 0.0332592 0.0514005
0.0153068 0.0514005 0.0404401
0.00642507 0.0332592 0.0325033
-0.0315584 0.0183303 0.0143619
-0.00793685 0.020598 0.0506447
0.0128501 -0.00585815 0.0102045
-0.00264562 -0.00869274 -0.00736993
-0.00680301 -0.0041574 0.0179524
-0.00661404 0.00188973 0.0304246
-0.00226767 0.00359048 0.0170075
0.00491329 -0.00736993 0.00472431
Vibration 6
-0.00453534 -0.000566918 0.00944863
-0.00434637 -0.00321253 0.00340151
-0.00340151 -0.00434637 -0.00075589
-0.000566918 -0.00302356 -0.00680301
-0.000377945 -0.000188973 0.000566918
-0.00264562 0.000377945 0.0181414
0.0020787 0.00188973 -0.0156847
-0.00377945 0.00151178 0.048566
-0.00472431 0.00132281 0.0767229
-0.00529123 -0.000188973 0.00321253
-0.020409 0.0171965 -0.0179524
-0.0192752 0.0168186 -0.0279679
-0.00188973 -0.00132281 -0.0160627
0.0132281 -0.0185193 0.00434637
0.0109604 -0.0171965 0.013606
-0.00170075 0.000188973 -0.027779
-0.00321253 -0.00491329 0.00132281
-0.00774788 0.0428968 0.0436527
-0.00793685 0.0468652 0.048377
-0.00491329 0.00188973 0.00982658
-0.000944863 -0.0472432 -0.0328812
-0.00075589 -0.0498888 -0.0368497
-0.00529123 0.00699199 0.0154958
0.0228657 -0.0230547 -0.00944863
0.00434637 0.000944863 -0.0243775
0.00453534 0.00151178 -0.020976
0.00377945 0.00245664 -0.00907068
0.00377945 0.00396842 -0.00434637
0.00472431 0.00340151 -0.0173855
0.00283459 0.00283459 0.00264562
0.0020787 0.00453534 0.0200311
0.00226767 0.0062361 0.0257003
0.00302356 0.00585815 0.0132281
0.00510226 0.00566918 -0.0168186
0.00472431 0.00151178 -0.0222988
0.00566918 -0.00113384 -0.0340151
-0.00548021 -0.00396842 0.00396842
0.0020787 0.00359048 -0.0132281
-0.0330702 0.0309915 -0.0258892
-0.0309915 0.0302356 -0.0438416
0.0257003 -0.0321253 0.0126612
0.0221098 -0.0300466 0.0289128
-0.0111494 0.0776677 0.0719986
-0.0107714 0.0857936 0.0818251
0.00188973 -0.082959 -0.0633058
0.000566918 -0.0878723 -0.0680301
-0.0111494 0.0141729 0.00453534
0.00113384 -0.00529123 0.0190862
-0.00604712 0.0166296 0.0292908
0.0217318 -0.0188973 -0.0200311
0.0160627 -0.0279679 0.0224877
0.0476211 -0.0376055 -0.0194642
0.00283459 0.00170075 -0.00151178
0.00151178 0.00491329 0.0296687
0.00151178 0.00774788 0.0398732
0.00302356 0.00699199 0.0170075
0.00226767 -0.00434637 -0.0171965
Vibration 7
0.0096376 -0.00113384 -0.0200311
0.00925966 -0.00188973 -0.0202201
0.00888171 -0.00151178 -0.0128501
0.00944863 -0.000944863 -0.00774788
0.00944863 -0.00170075 -0.00434637
0.00982658 -0.00151178 -0.0164406
0.0075589 -0.0041574 0.0162516
0.0100155 -0.00340151 -0.0247554
0.0102045 -0.00604712 -0.0330702
0.00396842 0.00170075 -0.0171965
-0.0326923 0.0111494 -0.0366607
-0.0442196 0.0166296 -0.0304246
-0.0160627 0.0134171 -0.00359048
0.0211649 0.00472431 0.0160627
0.0302356 -0.000377945 0.00850377
-0.0313695 0.0198421 -0.000188973
0.00907068 -0.00264562 -0.00661404
0.0020787 0.0130391 0.0117163
0.0020787 0.0113384 0.0190862
0.00869274 -0.00661404 0.00774788
0.0154958 -0.0224877 -0.0105825
0.0153068 -0.0200311 -0.0173855
0.00888171 -0.00888171 0.0156847
0.0102045 0.00925966 0.0428968
0.00377945 -0.00302356 0.0221098
-0.00264562 -0.00661404 0.0266451
-0.00850377 -0.00453534 0.00907068
-0.00850377 0.00075589 0.00680301
-0.00188973 0.00604712 0.0255113
-0.0141729 -0.00907068 -0.0105825
-0.0198421 -0.00774788 -0.034393
-0.0196532 -0.0020787 -0.0376055
-0.0141729 0.00245664 -0.0162516
0.000377945 0.0147399 0.0410071
-0.00321253 -0.0130391 0.0389284
0.00359048 0.00132281 0.020976
0.00907068 -0.0020787 -0.0255113
0.00699199 -0.00661404 0.020976
-0.0527234 0.0134171 -0.0555579
-0.0740773 0.0234326 -0.0451645
0.0421409 0.00245664 0.0360938
0.0583925 -0.00529123 0.0215429
-0.00359048 0.0266451 0.0196532
-0.00321253 0.0239995 0.0336371
0.020976 -0.0370386 -0.0194642
0.0198421 -0.0323143 -0.0304246
0.00774788 -0.00661404 0.0115273
0.0149288 -0.0162516 0.0187083
0.00396842 -0.00604712 0.0236216
-0.00396842 0.0120942 0.0455424
0.00548021 0.00850377 0.0873053
0.0561249 0.000188973 0.0253223
-0.0141729 -0.013984 -0.00736993
-0.0239995 -0.0111494 -0.0508336
-0.0239995 -0.00113384 -0.0566918
-0.0141729 0.00718096 -0.0177634
0.00907068 -0.00132281 -0.0020787
Vibration 8
-0.00604712 -0.000377945 -0.0236216
-0.00529123 -0.00302356 -0.0438416
-0.00132281 -0.00566918 -0.041574
0.00321253 -0.00302356 -0.034582
0.00377945 0.000377945 -0.0124722
-0.00113384 0.00264562 -0.00321253
0.00812582 0.00170075 0.00377945
-0.00226767 0.0124722 0.0340151
-0.00359048 0.0232436 0.0680301
-0.00529123 -0.000377945 -0.0160627
0.0211649 -0.0213539 0.0113384
0.0289128 -0.0258892 0.0232436
0.00661404 -0.00925966 0.00604712
-0.0226767 0.0122832 -0.0226767
-0.0272121 0.0147399 -0.0326923
0.0190862 -0.0168186 0.0230547
-0.00113384 -0.0111494 -0.0330702
-0.0145509 -0.0102045 -0.0213539
-0.0149288 -0.0062361 0.00245664
-0.0020787 -0.00321253 0.0145509
0.0117163 -0.00982658 -0.00170075
0.0119053 -0.013606 -0.0255113
-0.00321253 0.00793685 0.0474321
-0.0145509 0.00661404 -0.00529123
0.0096376 0.000944863 0.000188973
0.00472431 -0.000566918 0.0164406
-0.000944863 0.00132281 0.00529123
-0.000944863 0.00718096 0.00736993
0.00585815 0.0119053 0.0168186
-0.00661404 -0.00264562 -0.00869274
-0.0122832 -0.000377945 -0.0219208
-0.0120942 0.00566918 -0.0192752
-0.00661404 0.00982658 -0.00377945
0.00944863 0.0239995 0.041196
0.00321253 -0.00491329 0.0372276
0.0119053 0.000188973 -0.0154958
-0.00718096 -0.00396842 -0.054991
0.00736993 0.00434637 0.0177634
0.0364717 -0.034393 0.0222988
0.0517785 -0.0419519 0.0449755
-0.0404401 0.0260782 -0.0360938
-0.0476211 0.0283459 -0.0512116
-0.0249444 -0.0111494 -0.0298577
-0.0257003 -0.0041574 0.0126612
0.0222988 -0.0105825 0.00529123
0.0222988 -0.0177634 -0.0366607
-0.020409 0.00944863 0.0568808
0.0196532 0.0134171 0.0568808
-0.0100155 0.0103935 0.0563138
0.000188973 -0.00359048 0.0120942
-0.0122832 0.00340151 -0.0557469
-0.0529123 0.0351489 0.0103935
-0.00661404 -0.00774788 -0.00907068
-0.0164406 -0.00359048 -0.034204
-0.0162516 0.00736993 -0.0292908
-0.00642507 0.0149288 -0.00075589
0.0062361 -0.00529123 -0.0349599
Vibration 9
0.0115273 0.00585815 -0.0202201
0.0107714 0.0175745 -0.0313695
0.00132281 0.0234326 -0.0285349
-0.00774788 0.0179524 -0.0334482
-0.00850377 0.00585815 -0.0177634
0.00151178 0.000377945 -0.0124722
-0.0181414 0.000188973 0.00377945
0.000377945 -0.0126612 0.0096376
-0.000566918 -0.0251334 0.0298577
0.0211649 0.000944863 -0.00661404
0.013606 -0.00264562 -0.00548021
0.0124722 -0.00245664 0.0041574
0.0185193 0.00283459 0.0115273
0.0334482 0.00264562 0.0162516
0.0349599 0.00170075 0.00736993
0.00869274 0.00661404 0.0160627
0.00113384 0.0239995 -0.0126612
-0.0173855 0.0226767 0.00188973
-0.0168186 0.00226767 0.013606
0.00302356 -0.0170075 0.0105825
0.0215429 -0.00944863 0.00226767
0.0200311 0.0119053 -0.00888171
0.00510226 -0.0487549 0.0168186
-0.0302356 0.0398732 -0.0143619
-0.0228657 0.00188973 0.0187083
-0.0162516 0.00453534 -0.000377945
-0.0062361 0.000377945 0.00548021
-0.00604712 -0.0105825 -0.00113384
-0.0177634 -0.0175745 -0.00132281
0.00377945 0.0062361 0.0128501
0.013795 0.00075589 0.0128501
0.0134171 -0.0109604 0.00377945
0.00377945 -0.0170075 -0.00377945
-0.0228657 -0.0362827 -0.0330702
-0.0143619 0.0120942 -0.0255113
-0.0281569 0.00226767 0.054991
0.0185193 0.0219208 -0.0370386
-0.0173855 -0.00642507 0.00132281
0.00699199 -0.00491329 -0.0128501
0.00491329 -0.00491329 0.00434637
0.0438416 0.00321253 0.0266451
0.0462983 0.00226767 0.0103935
-0.0330702 0.0362827 0.00264562
-0.0315584 0 0.0236216
0.0370386 -0.0213539 0.00283459
0.034393 0.0177634 -0.0151178
0.0241885 -0.0534792 0.0130391
0.00831479 -0.0638727 0.0188973
-0.0147399 -0.0559359 0.0230547
-0.0602823 0.0534792 -0.0292908
-0.00245664 0.0733214 -0.0302356
-0.0576366 0.0173855 -0.00529123
0.00377945 0.0158737 0.0177634
0.0211649 0.00548021 0.0192752
0.020976 -0.0153068 0.00264562
0.00340151 -0.0264562 -0.0109604
-0.0151178 0.0228657 -0.0260782
Vibration 10
0.0096376 -0.00245664 -0.013795
0.0100155 -0.00170075 -0.0183303
0.0109604 -0.00188973 0.00226767
0.0124722 -0.00075589 0.0236216
0.0126612 -0.00264562 0.0185193
0.0117163 -0.00113384 0.00548021
0.00888171 -0.00566918 0.0291018
0.0115273 0.00812582 0.0143619
0.0113384 0.0217318 0.0236216
-0.000188973 0.00340151 -0.0211649
0.0149288 -0.0153068 0.00132281
0.00132281 -0.00831479 0.00226767
-0.0272121 0.0164406 -0.0187083
-0.0500777 0.0389284 -0.0461093
-0.0351489 0.0300466 -0.0464873
-0.034582 0.0190862 -0.0107714
0.0115273 -0.00188973 0.00245664
0.0130391 0.00453534 0.0062361
0.0130391 0.00642507 0.00491329
0.0117163 0.00132281 -0.000944863
0.00982658 -0.00529123 -0.00491329
0.00982658 -0.0062361 -0.00264562
0.0117163 0.00283459 -0.00302356
0.0332592 -0.00888171 0.054991
0.00340151 -0.0041574 0.0321253
-0.00132281 -0.0124722 -0.0130391
-0.00774788 -0.00869274 -0.00453534
-0.0075589 -0.00529123 -0.0041574
-0.00566918 -0.00529123 -0.00680301
-0.0122832 -0.0111494 0.00321253
-0.0160627 -0.00812582 0.013606
-0.0160627 -0.00396842 0.0132281
-0.0117163 -0.00264562 0.00264562
-0.0096376 -0.0103935 -0.0506447
0.00226767 -0.0234326 -0.0572587
-0.000944863 0.00699199 0.0600933
0.0103935 -0.00132281 -0.034771
0.00850377 -0.00869274 0.0215429
0.0387394 -0.0362827 0.0183303
0.0147399 -0.0228657 0.0200311
-0.0793685 0.0633058 -0.0680301
-0.0498888 0.0444086 -0.0638727
0.0143619 0.0075589 0.00982658
0.0141729 0.0119053 0.00831479
0.00850377 -0.00944863 -0.0096376
0.00812582 -0.0103935 -0.00453534
0.0113384 0.00472431 -0.00718096
0.0103935 -0.00075589 -0.00340151
0.0130391 0.00548021 -0.000566918
0.0716206 -0.0360938 0.102423
-0.0075589 -0.0582036 0.0731324
0.0850377 0.0461093 0.0383614
-0.0122832 -0.0153068 0.000944863
-0.0188973 -0.00925966 0.0219208
-0.0188973 -0.00170075 0.020787
-0.0119053 0.00132281 0.000377945
0.0105825 -0.000377945 0.0381725
Vibration 11
-0.0120942 0.00491329 0.0119053
-0.0119053 -0.00302356 0.00548021
-0.00359048 -0.00812582 -0.0113384
0.00472431 -0.00302356 -0.0113384
0.00585815 0.00340151 0.0162516
-0.00377945 0.00888171 0.0111494
0.013984 0.00472431 0.0659514
-0.00283459 0.020976 -0.0115273
-0.00151178 0.0336371 -0.0360938
-0.013606 0.00566918 0.0096376
-0.0213539 0.0179524 -0.00472431
-0.00793685 0.0111494 -0.00359048
0.0126612 -0.00774788 0.0113384
0.0181414 -0.0185193 0.0228657
0.0041574 -0.0103935 0.0213539
0.0323143 -0.0170075 0.0153068
-0.00340151 -0.020787 -0.0230547
-0.00661404 -0.0249444 -0.0234326
-0.00736993 -0.0171965 -0.0113384
-0.00472431 -0.00529123 0.00132281
-0.000377945 -0.0162516 -0.0109604
0 -0.0239995 -0.0232436
-0.00718096 0.0239995 0.034204
-0.0145509 -0.00132281 -0.0315584
0.0173855 0.00321253 0.0372276
0.0115273 -0.00585815 -0.00850377
0.000188973 -0.000566918 -0.0109604
0.000188973 0.00812582 0.0020787
0.00642507 0.0102045 -0.00491329
-0.00907068 -0.00661404 -0.0185193
-0.0173855 -0.00075589 -0.0041574
-0.0170075 0.00982658 0.0171965
-0.00831479 0.0145509 0.0179524
0.00434637 0.0143619 -0.0444086
0.0141729 -0.020409 -0.0383614
0.0183303 0.0113384 0.0349599
-0.0183303 -0.00680301 0.00888171
0.0130391 0.0096376 0.0818251
-0.0374166 0.0330702 -0.0158737
-0.013606 0.0200311 -0.013606
0.034582 -0.034393 0.034582
0.00774788 -0.0177634 0.0291018
-0.00907068 -0.0306136 -0.0302356
-0.0100155 -0.0173855 -0.00925966
0.00226767 -0.0153068 -0.00812582
0.00283459 -0.0296687 -0.0300466
-0.0372276 0.020598 0.0646286
0.0162516 0.0576366 0.0425188
-0.00340151 0.0200311 0.0257003
-0.0219208 0.00774788 -0.0512116
0.00359048 0.0179524 -0.0602823
-0.0570697 -0.0181414 -0.0164406
-0.00907068 -0.0158737 -0.0340151
-0.0238105 -0.00453534 -0.00869274
-0.0230547 0.0145509 0.0317474
-0.00812582 0.0234326 0.0302356
0.00831479 -0.00472431 -0.0255113
Vibration 12
-0.00472431 -0.00264562 -0.0393063
-0.00434637 -0.00812582 -0.0383614
-0.00132281 -0.0103935 0.0224877
0.00434637 -0.00774788 0.0778567
0.00396842 -0.0020787 0.0222988
0 0.000188973 -0.00888171
0.00585815 0.000944863 -0.0253223
-0.000188973 0.0096376 0.00075589
-0.000377945 0.0213539 0.0105825
-0.00850377 -0.00075589 -0.0445975
-0.0230547 -0.00680301 -0.0430858
-0.0113384 -0.0145509 -0.0151178
0.0130391 -0.0143619 0.00869274
0.0187083 -0.00264562 -0.000188973
0.00850377 0.00264562 -0.0262672
0.0362827 -0.0306136 0.0519675
-0.00132281 -0.00736993 0.0258892
0.00907068 0.00396842 0.0257003
0.00944863 0.0115273 0.0117163
-0.00321253 0.00529123 -0.00302356
-0.0153068 -0.00283459 -0.000188973
-0.0145509 -0.00831479 0.0151178
-0.00302356 0.00736993 -0.0272121
-0.034771 0.0291018 -0.00377945
0.00566918 0.00075589 -0.000566918
0.00377945 -0.000566918 -0.00226767
0.00113384 0.000944863 0.00359048
0.00113384 0.00264562 -0.00604712
0.00302356 0.00377945 -0.0020787
-0.00132281 0.000188973 0.013984
-0.00359048 0.00132281 0.0096376
-0.00396842 0.00264562 -0.00699199
-0.00151178 0.00340151 -0.0141729
0.00340151 0.00548021 0.00113384
0.00453534 -0.00377945 -0.0122832
0.00377945 0.00510226 0.00736993
-0.00680301 -0.00925966 -0.0776677
0.00585815 0.00321253 -0.048377
-0.0423299 -0.00699199 -0.062172
-0.0192752 -0.0211649 -0.0111494
0.034582 -0.000377945 0.0164406
0.0164406 0.00907068 -0.0296687
0.0183303 0.00604712 0.0340151
0.0190862 0.020787 0.0115273
-0.0249444 -0.00566918 -0.00982658
-0.0258892 -0.0143619 0.0187083
0.00283459 0.0260782 -0.0727545
-0.0179524 -0.0353379 -0.0313695
0.00604712 0.0326923 -0.000566918
-0.0404401 0.0253223 0.0115273
-0.0102045 0.0510226 -0.0808803
-0.102612 0.0512116 0.0226767
-0.00113384 -0.00113384 0.0241885
-0.00529123 0.000944863 0.0183303
-0.00585815 0.00321253 -0.0134171
-0.00170075 0.00491329 -0.0253223
0.0075589 -0.0120942 0.116785
Vibration 13
0.00132281 -0.000566918 -0.00472431
0.00132281 -0.000377945 -0.00340151
0.00075589 0 0.00642507
0.00075589 -0.000188973 0.0149288
0.000566918 -0.000188973 0.00245664
0.00113384 -0.000566918 -0.00132281
-0.00075589 -0.000188973 -0.0120942
0.00113384 -0.000944863 0.00075589
0.000944863 -0.00132281 0.00340151
0.00113384 -0.000188973 -0.00529123
-0.000377945 -0.00188973 -0.0041574
-0.000566918 -0.0020787 -0.000944863
0.00075589 -0.000188973 0.00075589
0.00151178 0.0020787 -0.000944863
0.00188973 0.00170075 -0.00396842
0.00170075 -0.00132281 0.00585815
0.000566918 0.00075589 0.00548021
0.00340151 0.00661404 0.00869274
0.00283459 0.00510226 0.00151178
0.000377945 -0.0020787 -0.00793685
-0.0020787 -0.0062361 -0.00812582
-0.00264562 -0.00548021 -0.00170075
0.000188973 -0.00264562 0.0020787
-0.00377945 0.00548021 0.00245664
-0.00170075 0.000188973 -0.0041574
-0.00151178 0.00075589 -0.00113384
-0.00075589 0.000566918 0.00170075
-0.00075589 -0.000188973 -0.00302356
-0.00113384 -0.000188973 0
-0.000188973 0.00132281 0.00680301
0.000377945 0.00075589 0.00359048
0.000188973 -0.000566918 -0.00548021
-0.000377945 -0.000944863 -0.00831479
-0.000944863 -0.000566918 0.00529123
-0.00132281 0.00151178 -0.00245664
-0.00264562 0.00075589 0.000188973
0.00188973 0 -0.00888171
-0.000566918 -0.00075589 -0.0188973
-0.00151178 -0.00321253 -0.00566918
-0.00151178 -0.00359048 0.000188973
0.0020787 0.00377945 0
0.00302356 0.00302356 -0.00472431
0.00510226 0.0124722 0.0151178
0.00680301 0.0107714 0.00321253
-0.0062361 -0.00944863 -0.013984
-0.00529123 -0.00925966 -0.00283459
-0.00396842 -0.211271 0.465628
-0.00925966 0.494352 -0.0258892
0.0122832 -0.286293 -0.388906
-0.00170075 0.00283459 0.00812582
-0.00302356 0.00529123 -0.0075589
-0.0100155 0.0124722 0.00529123
0 0.00226767 0.0122832
0.000944863 0.00132281 0.0075589
0.000566918 -0.00113384 -0.00982658
-0.000377945 -0.00188973 -0.0141729
0.00075589 -0.000566918 0.0221098
Vibration 14
-0.00377945 0.0020787 0.0147399
-0.00340151 -0.00132281 0.0166296
0.00132281 -0.0041574 0
0.00585815 -0.00075589 -0.0143619
0.00566918 0.00151178 -0.0175745
0.000566918 0.00359048 -0.00340151
0.00585815 0.0020787 -0.0398732
0.00075589 0.0111494 -0.00170075
0.000944863 0.0215429 0.000188973
-0.0041574 0.0020787 0.0194642
-0.00075589 0.00774788 0.0149288
0.00113384 0.0075589 0.00642507
-0.000377945 0.00075589 0.00302356
-0.00132281 -0.00680301 0.00944863
-0.00377945 -0.00472431 0.0171965
-0.000377945 0.00264562 -0.0115273
0.00170075 -0.0134171 -0.00793685
0.00302356 -0.0183303 -0.0130391
0.00283459 -0.0143619 -0.0103935
0.00170075 -0.00434637 -0.00226767
0.00113384 -0.0115273 -0.00793685
0.00151178 -0.0160627 -0.0105825
-0.000188973 0.0188973 0.0154958
0.00548021 -0.0134171 -0.0119053
0.00396842 0.00170075 -0.0075589
0.00075589 -0.000377945 -0.0102045
-0.00264562 0.00321253 0.027779
-0.00283459 -0.000188973 -0.0238105
-0.00113384 0.00302356 0.0147399
-0.00434637 0.00566918 0.089573
-0.00642507 0.00434637 0.0557469
-0.00793685 -0.0020787 -0.0532903
-0.0062361 -0.00359048 -0.0865495
0.00188973 0.00831479 0.0525344
0.00472431 -0.00585815 -0.0600933
-0.00340151 0.00831479 0.0393063
-0.00680301 -0.00340151 0.0287238
0.00585815 0.00264562 -0.061794
0.000377945 0.0130391 0.0177634
0.00302356 0.0124722 0.00226767
-0.000944863 -0.0134171 0.00793685
-0.00642507 -0.00907068 0.020409
0.0041574 -0.0232436 -0.0164406
0.00340151 -0.0162516 -0.0124722
0.00075589 -0.0111494 -0.00774788
0.00113384 -0.0196532 -0.0132281
-0.0217318 0.0326923 0.00151178
0.0143619 0.00642507 0.0222988
0.00472431 0.0381725 0.0376055
0.00396842 -0.0075589 -0.02759
0.00434637 -0.0130391 0.00510226
0.0120942 -0.0304246 -0.0153068
-0.00359048 0.00831479 0.15458
-0.00699199 0.00718096 0.106392
-0.0100155 -0.00510226 -0.105258
-0.00699199 -0.00604712 -0.154391
0.00585815 -0.00170075 -0.00642507
Vibration 15
0.00377945 0.00321253 -0.00302356
0.00188973 0.00340151 -0.0262672
-0.00170075 0.00491329 0.00680301
0.000377945 0.00491329 0.0754001
-0.0020787 0.00680301 0.0383614
0.00226767 0.00377945 0.0187083
-0.0075589 0.00736993 -0.00774788
0.00245664 -0.0236216 0.00264562
0.00226767 -0.0729434 -0.020598
0.0109604 0.000188973 -0.00113384
0.0217318 -0.00699199 0.00907068
0.020787 -0.00642507 0.0102045
0.00718096 0.00340151 -0.000377945
0.00774788 0.00434637 -0.000944863
0.00944863 0.00302356 -0.00151178
-0.0149288 0.0153068 -0.013984
-0.00113384 -0.0166296 -0.0166296
-0.00434637 -0.0306136 -0.0251334
-0.00491329 -0.0317474 -0.020598
-0.00340151 -0.0187083 -0.00793685
0.00132281 -0.0408181 -0.0294797
0.000566918 -0.0360938 -0.0313695
-0.00774788 0.034204 0.0447865
0.00699199 0.00907068 0.00869274
-0.0158737 0.0122832 -0.00396842
-0.00982658 0.0179524 -0.0020787