[Molden Format]
[FREQ]
10.8
18.0
21.2
25.0
32.7
36.4
41.6
49.8
64.4
74.3
81.6
86.4
104.2
105.0
114.8
120.7
129.7
147.7
150.9
154.3
162.5
173.0
177.2
186.4
222.1
232.1
244.0
257.2
270.6
284.6
318.5
325.0
335.1
352.7
359.4
361.3
362.1
375.7
394.5
414.5
441.2
467.3
484.6
490.6
498.5
531.2
536.4
553.3
562.3
581.6
583.4
597.2
604.4
611.8
615.2
632.3
646.5
653.1
670.6
675.4
685.6
716.9
731.5
748.3
792.3
796.9
820.7
829.0
842.1
855.9
865.6
884.9
885.8
888.8
900.2
905.2
913.7
966.3
982.7
991.1
1010.7
1013.0
1016.2
1019.7
1020.2
1022.0
1036.0
1074.6
1077.0
1082.0
1089.6
1126.8
1136.2
1162.5
1164.4
1177.1
1186.8
1188.7
1211.1
1243.5
1246.0
1262.8
1268.1
1270.6
1274.7
1282.1
1284.8
1294.3
1300.8
1303.4
1332.9
1335.8
1345.2
1350.8
1352.5
1354.9
1365.6
1368.3
1381.4
1389.9
1394.6
1427.7
1457.7
1463.8
1503.3
1513.6
1521.5
1530.9
1554.2
1558.8
1579.3
1596.7
1612.4
1645.7
1689.0
1695.2
1696.0
1705.2
1709.6
1741.3
1797.6
1953.0
2269.3
2450.5
2598.1
2650.8
2652.9
2664.2
2673.9
2711.0
2731.4
2738.7
2739.4
2742.0
2744.3
2744.8
2747.1
2756.9
2760.5
2762.5
2763.3
2766.4
2767.7
2778.5
2779.4
       
[FR-COORD]
C -1.94491 -2.74407 -0.897809
C 0.696175 -2.74407 -0.897809
C 2.01898 -0.472243 -0.897809
N 0.767229 1.79014 -0.915383
C -1.84475 1.86308 -0.878912
C -3.24371 -0.42859 -0.897809
N -2.9493 4.22977 -0.762504
C -5.92108 -0.429913 -0.920675
N -8.10711 -0.528178 -0.934092
C -3.29304 -5.1565 -0.873431
C -2.78451 -6.95362 -2.75579
C -4.04798 -9.24227 -2.76939
C -5.82546 -9.73795 -0.853967
C -6.33474 -7.98145 1.04842
C -5.05672 -5.68486 1.01856
O -6.91659 -12.0402 -1.08584
C 4.79423 -0.440117 -0.774032
C 5.96133 -1.1053 1.50158
C 8.57973 -1.05749 1.6828
C 10.0428 -0.359426 -0.406669
C 8.8647 0.272498 -2.6836
C 6.24214 0.237539 -2.87182
C 12.8467 -0.246987 -0.186894
C -8.81444 -12.6991 0.700143
C -5.58338 4.62624 -1.15897
C 1.66334 3.17247 4.28344
C 1.42863 5.42616 3.21594
C 2.36556 5.9687 0.694663
C 2.36726 4.35714 -1.34227
C 0.538761 7.56004 4.7143
C 1.16804 9.93996 4.04666
C 2.72385 10.4094 1.84796
C 3.31231 8.49337 0.260782
O 3.11389 4.36697 -3.4839
O 1.65483 1.13724 5.12531
O -6.25046 6.94493 -0.923887
H 1.73723 -4.52589 -0.867573
H -1.75159 5.73891 -0.355457
H -1.40085 -6.53222 -4.22921
H -3.70519 -10.6526 -4.22505
H -7.70838 -8.36695 2.52184
H -5.4375 -4.29006 2.49444
H 4.82088 -1.63329 3.13921
H 9.49077 -1.54674 3.46028
H 9.99344 0.826944 -4.31065
H 5.32279 0.775733 -4.644
H 13.5947 -1.62781 1.17106
H 13.452 1.63783 0.465251
H 13.8031 -0.597153 -1.99593
H -9.37285 -14.5936 0.0563138
H -10.4196 -11.3984 0.591673
H -8.03096 -12.7849 2.61198
H -0.592051 7.14505 6.37253
H 0.546131 11.5676 5.13514
H 3.3896 12.3197 1.53521
H 4.46448 8.79214 -1.42334
H -5.19353 8.39416 -0.489439

[FR-NORM-COORD]
Vibration 1
-0.00245664 -0.00661404 0.00661404
-0.00226767 -0.00548021 0.0120942
-0.00359048 -0.00510226 0.0100155
-0.00453534 -0.00548021 0.00699199
-0.00472431 -0.00642507 0.0107714
-0.00359048 -0.00736993 0.00604712
-0.0041574 -0.00699199 0.0202201
-0.00359048 -0.0102045 -0.00548021
-0.00321253 -0.0143619 -0.0179524
-0.00113384 -0.00736993 -0.00151178
0.00831479 -0.00472431 -0.00170075
0.00869274 -0.00472431 -0.0113384
-0.000944863 -0.00774788 -0.020976
-0.0096376 -0.0111494 -0.0202201
-0.0096376 -0.0109604 -0.0103935
-0.000377945 -0.00699199 -0.0306136
-0.00359048 -0.00264562 0.0130391
-0.00661404 0.00888171 0.0179524
-0.00680301 0.0128501 0.0219208
-0.00434637 0.00548021 0.0213539
-0.00151178 -0.00642507 0.0164406
-0.00113384 -0.0105825 0.0122832
-0.00491329 0.0105825 0.0257003
-0.0132281 -0.0075589 -0.0444086
-0.0156847 -0.0107714 0.0914627
0.00604712 0.0279679 -0.00699199
0.0151178 0.0239995 -0.0175745
0.00548021 0.00491329 -0.0251334
-0.00529123 -0.00869274 -0.0143619
0.0338261 0.0364717 -0.0243775
0.0389284 0.0300466 -0.0421409
0.0264562 0.0113384 -0.054991
0.0103935 -0.000566918 -0.0466762
-0.0149288 -0.0224877 -0.0179524
-0.00188973 0.0326923 0.00434637
-0.0117163 -0.0113384 0.107147
-0.00151178 -0.00510226 0.0160627
0.00264562 -0.00359048 -0.0117163
0.0154958 -0.00226767 0.00566918
0.0158737 -0.00245664 -0.0119053
-0.0162516 -0.013795 -0.0272121
-0.0168186 -0.0134171 -0.00982658
-0.00850377 0.0147399 0.0185193
-0.00925966 0.0219208 0.0257003
0.000566918 -0.0126612 0.0158737
0.000944863 -0.0200311 0.00831479
-0.00510226 0.0141729 0.0296687
-0.00907068 0.0126612 0.0234326
-0.00113384 0.00869274 0.0281569
-0.0141729 -0.0041574 -0.0536682
-0.00925966 -0.00321253 -0.0498888
-0.0247554 -0.0154958 -0.0400622
0.0434637 0.0506447 -0.0143619
0.0529123 0.0389284 -0.0478101
0.0308025 0.00718096 -0.0716206
0.000944863 -0.0145509 -0.0557469
-0.00188973 -0.0096376 0.0784236
Vibration 2
0.00170075 0.00850377 -0.0257003
0.00151178 0.0062361 -0.0194642
0.00302356 0.00510226 -0.0187083
0.00491329 0.0062361 -0.0192752
0.00453534 0.00869274 -0.0266451
0.00321253 0.00925966 -0.0370386
0.00680301 0.00869274 -0.020598
0.00340151 0.00774788 -0.0636838
0.00359048 0.0041574 -0.089951
0.000188973 0.00925966 -0.013984
0.00151178 -0.00434637 -0.000377945
0.00529123 -0.00661404 0.0188973
0.00831479 0.00510226 0.0247554
0.00453534 0.020598 0.00944863
0.000188973 0.0226767 -0.0102045
0.0149288 -0.000188973 0.0464873
0.00283459 0.00151178 -0.0124722
-0.00359048 -0.00151178 -0.0100155
-0.00377945 -0.00982658 -0.00510226
0.00226767 -0.0151178 -0.00264562
0.00850377 -0.0102045 -0.00453534
0.00869274 -0.00170075 -0.00944863
0.00245664 -0.0264562 0.00188973
0.0255113 0.00642507 0.0600933
-0.00699199 0.00548021 0.0648176
-0.0308025 -0.0132281 -0.00831479
-0.0217318 -0.00982658 -0.00302356
-0.00132281 -0.00245664 0.0062361
0.0117163 0.00434637 0.000566918
-0.0336371 -0.0141729 -0.00396842
-0.0257003 -0.0124722 0.00925966
-0.00604712 -0.00680301 0.0243775
0.00566918 -0.00226767 0.0228657
0.027779 0.0115273 0.00604712
-0.0381725 -0.0162516 -0.0153068
-0.00151178 0.00491329 0.0856046
0.000188973 0.00548021 -0.0143619
0.0141729 0.0120942 -0.0548021
0 -0.013795 -0.00453534
0.00642507 -0.0175745 0.0298577
0.00510226 0.0306136 0.0126612
-0.00226767 0.034771 -0.0221098
-0.00831479 0.00264562 -0.0120942
-0.00869274 -0.0128501 -0.00340151
0.0134171 -0.0134171 -0.00226767
0.013606 0.00264562 -0.0105825
-0.00548021 -0.027779 0.00491329
0.00907068 -0.0281569 0.000566918
0.00396842 -0.0326923 0.00396842
0.0370386 -0.00491329 0.0831479
0.0162516 -0.00604712 0.0498888
0.0313695 0.0332592 0.0589595
-0.0491329 -0.0187083 -0.0156847
-0.0340151 -0.0154958 0.00907068
-0.00113384 -0.00661404 0.0368497
0.020598 0.0020787 0.0340151
0.0103935 0.00585815 0.0542351
Vibration 3
-0.00472431 -0.00510226 -0.00850377
-0.00453534 -0.00510226 -0.00850377
-0.00510226 -0.00510226 -0.00850377
-0.00642507 -0.00548021 -0.00982658
-0.00604712 -0.00529123 -0.0100155
-0.00548021 -0.00548021 -0.0109604
-0.0041574 -0.00453534 -0.00718096
-0.00548021 -0.00529123 -0.0132281
-0.00548021 -0.00453534 -0.0153068
-0.00529123 -0.00472431 -0.00321253
-0.00888171 -0.00888171 -0.000188973
-0.0096376 -0.00850377 0.00680301
-0.00661404 -0.00396842 0.0107714
-0.00340151 0.000377945 0.0075589
-0.00283459 0 0.000566918
-0.00736993 -0.00434637 0.0179524
-0.00548021 0.00321253 -0.00377945
-0.00718096 0.0111494 -0.000566918
-0.00831479 0.0364717 0.00869274
-0.00774788 0.0534792 0.0149288
-0.00548021 0.0396842 0.00982658
-0.00434637 0.0141729 0.000377945
-0.0100155 0.0886281 0.027401
-0.00340151 -0.000566918 0.0234326
-0.00264562 -0.00188973 -0.0151178
-0.0219208 -0.027779 -0.0171965
0.013606 -0.0168186 -0.00170075
0.0096376 -0.0145509 -0.00245664
-0.00718096 -0.00680301 -0.00869274
0.0563138 -0.0134171 0.0190862
0.0840928 -0.0177634 0.0302356
0.0708647 -0.0243775 0.0196532
0.0334482 -0.0224877 0.00377945
-0.0200311 0.00170075 -0.013606
-0.0561249 -0.0330702 -0.0298577
-0.00170075 -0.00151178 -0.0154958
-0.00453534 -0.00510226 -0.00736993
-0.00302356 -0.00680301 -0.00283459
-0.0109604 -0.0122832 -0.00321253
-0.0124722 -0.0117163 0.00925966
-0.00151178 0.0041574 0.0103935
-0.000188973 0.00321253 -0.00188973
-0.00793685 -0.000566918 -0.00491329
-0.00982658 0.0445975 0.0117163
-0.00491329 0.0504557 0.013795
-0.00321253 0.00491329 -0.00302356
0.00132281 0.0973209 0.0298577
-0.0368497 0.0959981 0.0309915
0.00245664 0.101856 0.0313695
-0.00302356 -0.00302356 0.0302356
-0.00472431 -0.00226767 0.0221098
-0.000188973 0.00585815 0.0222988
0.0640617 -0.00831479 0.0258892
0.116407 -0.0166296 0.0466762
0.0912738 -0.0306136 0.0241885
0.0221098 -0.0258892 -0.00491329
-0.00226767 -0.00245664 -0.0119053
Vibration 4
-0.0164406 0.0119053 -0.00680301
-0.0162516 0.0105825 -0.00680301
-0.0141729 0.00925966 -0.00113384
-0.0124722 0.0102045 0.00132281
-0.0122832 0.0115273 0.00283459
-0.0145509 0.0128501 0.000566918
-0.0100155 0.0128501 0.00736993
-0.0145509 0.0158737 0.00774788
-0.0147399 0.0188973 0.0149288
-0.0122832 0.0096376 -0.0120942
-0.00170075 0.0122832 -0.0120942
0.0166296 0.00245664 -0.00869274
0.0241885 -0.0107714 -0.00491329
0.00774788 -0.0102045 -0.00982658
-0.0105825 0.000188973 -0.0134171
0.0495108 -0.0236216 0.00359048
-0.0145509 0.00226767 0.00359048
-0.0217318 -0.0164406 0.00188973
-0.0215429 -0.034582 0.00566918
-0.0143619 -0.0336371 0.0109604
-0.0075589 -0.0109604 0.013795
-0.0075589 0.00680301 0.0100155
-0.013606 -0.0583925 0.013606
0.0750221 -0.048566 0.0213539
-0.00566918 0.0181414 -0.0147399
-0.000377945 0.00661404 -0.00472431
0.0096376 0.0100155 0.000188973
0 0.00831479 -0.00359048
-0.0117163 0.00869274 -0.00396842
0.0311805 0.0126612 0.00925966
0.0387394 0.0103935 0.00869274
0.0255113 0.00604712 -0.00151178
0.00642507 0.00529123 -0.0075589
-0.020787 0.00812582 -0.00718096
-0.0102045 0.00510226 -0.00812582
-0.0041574 0.0185193 -0.0153068
-0.0173855 0.00982658 -0.0105825
-0.0096376 0.00925966 0.0194642
-0.00642507 0.0217318 -0.013984
0.0266451 0.00359048 -0.00736993
0.00944863 -0.0177634 -0.0102045
-0.0222988 -0.000377945 -0.0158737
-0.0272121 -0.0177634 -0.00245664
-0.0272121 -0.0506447 0.0041574
-0.00170075 -0.00869274 0.0185193
-0.00170075 0.0226767 0.0117163
-0.0268341 -0.0644397 0.0145509
0.00264562 -0.0636838 0.0134171
-0.0154958 -0.0678412 0.0143619
0.106392 -0.0631168 0.0370386
0.0500777 -0.0791795 0.0239995
0.089384 -0.0221098 0.0166296
0.0406291 0.0160627 0.0166296
0.0546131 0.0119053 0.0154958
0.0313695 0.00359048 -0.00453534
-0.00396842 0.00245664 -0.0151178
-0.00548021 0.0162516 -0.00434637
Vibration 5
0.000566918 -0.00075589 -0.0143619
0.000188973 0.000188973 -0.0164406
0 0.00075589 -0.0134171
-0.00113384 0.000188973 -0.0113384
-0.00132281 -0.00113384 -0.00793685
-0.000566918 -0.00132281 -0.0120942
-0.00302356 -0.00226767 0.00283459
-0.000566918 -0.00264562 -0.013984
-0.000377945 -0.00396842 -0.0166296
-0.00113384 0 -0.00869274
-0.0134171 -0.00170075 -0.0100155
-0.0179524 0.000566918 -0.00264562
-0.00944863 0.00491329 0.00642507
0.00340151 0.00661404 0.00812582
0.00718096 0.0041574 0.000377945
-0.0153068 0.00699199 0.0130391
-0.000566918 0 -0.00321253
-0.0124722 -0.0438416 -0.0096376
-0.013795 -0.0408181 0.00850377
-0.00226767 0.00585815 0.0323143
0.0103935 0.0455424 0.0366607
0.0117163 0.0410071 0.0185193
-0.00434637 0.0128501 0.0531013
-0.00661404 0.0113384 0.0239995
-0.00264562 -0.0020787 0.00170075
0.0597153 -0.0113384 -0.0103935
0.0262672 -0.0124722 -0.00510226
-0.00302356 0.000944863 -0.0130391
-0.0107714 0.00529123 -0.0162516
0.0192752 -0.0236216 0.00661404
-0.0113384 -0.0162516 0.00396842
-0.0357158 0.00226767 -0.0096376
-0.0302356 0.0105825 -0.0173855
-0.0279679 0.013984 -0.0224877
0.0903289 -0.0117163 -0.0111494
-0.0041574 -0.00340151 0.0117163
0.000566918 0.000377945 -0.0194642
-0.0041574 -0.00321253 0.0103935
-0.0196532 -0.00491329 -0.0168186
-0.027779 -0.00075589 -0.00359048
0.0100155 0.0100155 0.0151178
0.0168186 0.00585815 0.00132281
-0.020976 -0.0806913 -0.027401
-0.0243775 -0.0752111 0.00453534
0.0194642 0.0797464 0.0544241
0.0226767 0.0678412 0.020598
-0.00944863 0.0126612 0.0555579
-0.0141729 0.0134171 0.0610381
0.00907068 0.0190862 0.0589595
-0.0126612 0.0115273 0.0289128
-0.00548021 0.013606 0.0311805
0.00340151 0.0120942 0.0198421
0.0400622 -0.0376055 0.0173855
-0.0177634 -0.0241885 0.0119053
-0.0576366 0.00944863 -0.0124722
-0.0476211 0.0239995 -0.0266451
-0.00510226 -0.00491329 0.0188973
Vibration 6
0.00453534 -0.000566918 -0.0119053
0.0041574 -0.00302356 -0.0241885
0.00529123 -0.00359048 -0.0164406
0.00661404 -0.00264562 -0.0115273
0.00680301 -0.00075589 -0.00472431
0.00566918 -0.000188973 0.00453534
0.00736993 -0.000566918 -0.0075589
0.00529123 -0.00075589 0.0360938
0.00529123 -0.00245664 0.0653845
0.000188973 0.00151178 -0.0124722
-0.0436527 0.0222988 -0.0434637
-0.0514005 0.0264562 -0.0436527
-0.0117163 0.00907068 -0.0115273
0.0325033 -0.0111494 0.0188973
0.0374166 -0.013984 0.0177634
-0.0228657 0.0147399 -0.0151178
0.00491329 -0.00396842 -0.00718096
-0.00548021 0.00245664 0.000188973
-0.00642507 0.00604712 0.0130391
0.00283459 0.00340151 0.0187083
0.0134171 -0.00396842 0.0111494
0.0143619 -0.00736993 -0.00170075
0.00151178 0.00907068 0.0332592
0.0323143 -0.0119053 0.0336371
0.00340151 -0.00340151 0.013984
-0.0213539 0.00075589 -0.00718096
-0.013984 -0.000566918 -0.0113384
0.00302356 -0.00377945 -0.00585815
0.0113384 -0.00491329 -0.00510226
-0.0249444 0.00188973 -0.0211649
-0.0183303 0.000566918 -0.0194642
-0.000566918 -0.00340151 -0.00774788
0.00982658 -0.00566918 -0.00132281
0.0230547 -0.00699199 -0.000944863
-0.0281569 0.00113384 -0.0062361
0.00377945 -0.00359048 0.0162516
0.00264562 -0.0041574 -0.0366607
0.00888171 0.00151178 -0.0202201
-0.0721875 0.0349599 -0.0665184
-0.0861715 0.0421409 -0.0672742
0.0616051 -0.0236216 0.0427078
0.0704868 -0.0279679 0.0396842
-0.0130391 0.00491329 -0.00434637
-0.0147399 0.0111494 0.0187083
0.020787 -0.00680301 0.0154958
0.0222988 -0.0120942 -0.00718096
-0.00302356 0.0145509 0.041385
-0.00548021 0.0122832 0.0309915
0.0117163 0.00548021 0.0394953
0.0219208 -0.00774788 0.0304246
0.0238105 -0.0175745 0.0931635
0.0878723 -0.0283459 0.0102045
-0.0387394 0.00472431 -0.0298577
-0.0262672 0.00245664 -0.0268341
0.0041574 -0.00453534 -0.00453534
0.0232436 -0.00888171 0.00736993
0.00585815 -0.00245664 0.00699199
Vibration 7
-0.0177634 0.000188973 -0.00585815
-0.0171965 -0.0102045 0.00132281
-0.00888171 -0.0154958 0.00642507
-0.000566918 -0.0105825 0.0107714
0 -0.000377945 0.00642507
-0.00888171 0.00491329 -0.00453534
0.0100155 0.00396842 0.0115273
-0.00869274 0.0164406 -0.0164406
-0.00907068 0.0272121 -0.027401
-0.0239995 0.00340151 -0.0134171
-0.0188973 0.00302356 -0.0119053
-0.0111494 -0.00113384 -0.00944863
-0.00812582 -0.00585815 -0.00774788
-0.020787 -0.00151178 -0.0153068
-0.0291018 0.00321253 -0.0183303
0.00812582 -0.0143619 0.00075589
-0.00869274 -0.0179524 0.00170075
-0.00151178 0.0062361 0.00472431
-0.00151178 0.0285349 0.00170075
-0.00925966 0.0249444 -0.00472431
-0.0158737 -0.00907068 -0.0107714
-0.0156847 -0.0302356 -0.0075589
-0.0105825 0.0604712 -0.00510226
0.0391173 -0.0366607 0.0253223
0.0147399 0.0202201 -0.00396842
0.0309915 0.00396842 0.0255113
0.00850377 -0.00680301 0.00793685
0.0143619 -0.0143619 0.00850377
0.0120942 -0.0166296 0.0107714
-0.0171965 -0.00321253 -0.0119053
-0.020787 -0.00434637 -0.0190862
-0.000566918 -0.0102045 -0.00642507
0.0166296 -0.0153068 0.0062361
0.0166296 -0.0241885 0.0124722
0.0527234 0.0111494 0.0423299
0.0279679 0.0239995 -0.00132281
-0.0241885 -0.0141729 0.00075589
0.0153068 -0.00321253 0.0236216
-0.0192752 0.00548021 -0.0115273
-0.00548021 -0.0020787 -0.00736993
-0.0238105 -0.0020787 -0.0181414
-0.0381725 0.00566918 -0.0230547
0.00453534 0.00944863 0.0100155
0.00396842 0.0506447 0.00491329
-0.0217318 -0.0166296 -0.0173855
-0.0217318 -0.0534792 -0.0111494
0.00642507 0.0725655 -0.00226767
-0.034771 0.0695419 -0.00831479
-0.00566918 0.0695419 -0.00396842
0.0672742 -0.0515895 0.0444086
0.0147399 -0.0663294 0.0317474
0.0593374 -0.00907068 0.0181414
-0.0317474 0.000188973 -0.0211649
-0.0387394 -0.00075589 -0.034771
-0.000377945 -0.0105825 -0.00699199
0.0309915 -0.020976 0.0153068
0.034771 0.0160627 0.00831479
Vibration 8
-0.00831479 0.0062361 0.00075589
-0.0075589 0.00188973 -0.0149288
-0.00245664 -0.00170075 -0.020976
0.00226767 0.000944863 -0.0226767
0.00264562 0.00661404 -0.00869274
-0.00283459 0.00925966 0.0109604
0.00869274 0.0096376 -0.013984
-0.00302356 0.0198421 0.0466762
-0.00377945 0.0306136 0.0805023
-0.00548021 0.00510226 0.00434637
0.0291018 -0.0102045 0.0272121
0.0410071 -0.0162516 0.0291018
0.013606 -0.00699199 0.0062361
-0.0224877 0.00774788 -0.0171965
-0.0306136 0.0124722 -0.0170075
0.0287238 -0.0145509 0.0109604
-0.00264562 -0.00604712 -0.0164406
-0.0115273 -0.0166296 -0.0145509
-0.0126612 -0.0100155 -0.00113384
-0.00453534 0.00718096 0.0102045
0.00510226 0.0120942 0.00680301
0.00604712 0.00491329 -0.00680301
-0.00642507 0.0213539 0.0272121
-0.0151178 0.00377945 -0.0289128
0.00472431 0.0156847 0.0183303
-0.00585815 -0.0147399 -0.0154958
-0.00907068 -0.0153068 -0.0160627
0.00774788 -0.0102045 -0.00888171
0.00925966 -0.00340151 -0.0143619
-0.0302356 -0.0185193 -0.0241885
-0.0258892 -0.0171965 -0.0154958
-0.00075589 -0.013795 0.00302356
0.0156847 -0.0109604 0.00548021
0.0149288 0.00170075 -0.0124722
-0.00359048 -0.0158737 -0.0185193
0.0153068 0.0185193 0.020787
-0.0103935 0 -0.0187083
0.0156847 0.0096376 -0.0336371
0.047999 -0.0168186 0.0427078
0.0699199 -0.0279679 0.0470542
-0.0428968 0.0147399 -0.034204
-0.0563138 0.020976 -0.0313695
-0.0179524 -0.0287238 -0.0228657
-0.0202201 -0.0171965 0.000566918
0.0115273 0.0228657 0.0147399
0.013606 0.00869274 -0.0096376
-0.00736993 0.0264562 0.0326923
-0.0202201 0.0251334 0.0294797
0.00604712 0.0251334 0.0330702
-0.00188973 -0.00151178 -0.0249444
-0.0111494 0.00453534 -0.0789905
-0.0610381 0.020409 -0.00925966
-0.0489439 -0.0219208 -0.0377945
-0.0410071 -0.0187083 -0.0219208
0.00434637 -0.013606 0.0145509
0.0338261 -0.00907068 0.0183303
0.0251334 0.0160627 0.00566918
Vibration 9
0.00170075 -0.00132281 -0.00113384
0.00113384 0.00434637 -0.00226767
-0.00377945 0.0075589 -0.00472431
-0.00907068 0.00434637 -0.0041574
-0.00888171 -0.00132281 -0.00340151
-0.00377945 -0.0041574 -0.00321253
-0.0119053 -0.00264562 -0.00226767
-0.00377945 -0.0126612 -0.00793685
-0.00340151 -0.0213539 -0.0132281
0.0062361 -0.00396842 0.00264562
0.000188973 -0.00132281 -0.00151178
-0.000377945 -0.00113384 -0.000566918
0.00510226 -0.00302356 0.0041574
0.0147399 -0.00736993 0.0107714
0.0151178 -0.0075589 0.0096376
0 -0.000377945 0.00170075
-0.00396842 0.0107714 -0.00548021
-0.00491329 -0.0215429 -0.0143619
-0.00472431 -0.0294797 -0.0141729
-0.00396842 -0.00113384 -0.0041574
-0.00321253 0.0372276 0.0062361
-0.00302356 0.0408181 0.00491329
-0.00340151 -0.0132281 -0.00472431
-0.0120942 0.00831479 -0.00793685
-0.0126612 -0.0102045 -0.00396842
0.00226767 0.020409 0.0285349
-0.0194642 0.00359048 -0.00188973
0.0164406 -0.0109604 0.00812582
-0.0122832 0.00453534 -0.0020787
-0.0566918 0.0166296 -0.041385
-0.00283459 0.00642507 -0.02759
0.0799354 -0.0219208 0.0241885
0.0823921 -0.0300466 0.0351489
-0.0325033 0.0187083 -0.00982658
0.0258892 0.0308025 0.0525344
-0.020976 -0.0122832 -0.00831479
0.00510226 0.00661404 -0.00264562
-0.0132281 -0.00188973 -0.00302356
-0.00491329 0.00075589 -0.00566918
-0.00604712 0.00113384 -0.00396842
0.0215429 -0.0103935 0.0162516
0.0215429 -0.0100155 0.013606
-0.00604712 -0.0402512 -0.0211649
-0.00529123 -0.0582036 -0.0217318
-0.00264562 0.0625499 0.0151178
-0.00188973 0.0650066 0.0111494
-0.0075589 -0.0251334 -0.0145509
0.00453534 -0.0200311 0.00736993
-0.0062361 -0.00510226 -0.00793685
-0.0257003 0.0156847 -0.0177634
-0.00113384 0.0219208 -0.00774788
-0.0190862 -0.00604712 -0.00566918
-0.124155 0.0338261 -0.0837149
-0.0221098 0.0188973 -0.0576366
0.132848 -0.0360938 0.0510226
0.133415 -0.0529123 0.0663294
-0.0262672 -0.0075589 -0.0120942
Vibration 10
-0.00264562 0.00793685 0.0519675
-0.00283459 0.00377945 0.0701088
0.000566918 0.0020787 0.0328812
0.00170075 0.0020787 -0.00661404
0.00151178 0.00680301 -0.00774788
-0.00113384 0.00831479 0.0156847
0.0062361 0.0102045 -0.0355268
-0.000944863 0.00718096 -0.00680301
-0.000566918 0.0041574 -0.0285349
-0.00472431 0.00888171 0.0440306
-0.00321253 0.0285349 0.0253223
-0.00510226 0.0304246 -0.00113384
-0.00585815 0.0109604 -0.00661404
-0.00661404 -0.00925966 0.0117163
-0.00718096 -0.00793685 0.0360938
-0.00680301 0.0145509 -0.0376055
0.000944863 0.000566918 0.0230547
0.0134171 -0.0122832 0.0128501
0.0145509 -0.0119053 -0.000377945
0.00359048 0.00245664 -0.00340151
-0.00869274 0.013795 0.00604712
-0.00925966 0.0111494 0.0190862
0.00472431 0.00491329 -0.0183303
0.0317474 -0.0325033 -0.0147399
-0.00245664 0.00774788 0.0179524
-0.000377945 -0.0192752 -0.0255113
-0.00170075 -0.0156847 -0.0173855
0.00604712 -0.00642507 -0.0128501
0.00075589 -0.00075589 -0.0171965
-0.0143619 -0.0217318 -0.0171965
-0.0141729 -0.0192752 -0.00793685
-0.000377945 -0.0115273 0.00302356
0.00944863 -0.00604712 -0.000188973
-0.0115273 0.00453534 -0.0213539
0.00132281 -0.0249444 -0.0389284
0.00642507 0.0119053 0.00151178
-0.00604712 0.00245664 0.104502
0.0134171 0.0154958 -0.0774788
-0.000377945 0.0432747 0.0321253
-0.00585815 0.0461093 -0.0164406
-0.00850377 -0.0245664 0.00566918
-0.0107714 -0.020598 0.0468652
0.0222988 -0.0226767 0.0156847
0.0239995 -0.0224877 -0.00831479
-0.0175745 0.0243775 0.00340151
-0.0177634 0.0156847 0.0243775
0.013984 -0.000377945 -0.0287238
0.00604712 0.00264562 -0.0132281
-0.00491329 0.0143619 -0.0253223
0.041574 -0.0292908 -0.0328812
0.0156847 -0.048377 0.0313695
0.0650066 -0.0515895 -0.0292908
-0.0245664 -0.027779 -0.0255113
-0.0238105 -0.0226767 -0.00850377
0.00132281 -0.0103935 0.013984
0.0188973 -0.00113384 0.00736993
0.0175745 0.0162516 -0.0400622
Vibration 11
-0.0062361 0.00869274 -0.00264562
-0.00642507 0.00944863 -0.00075589
-0.00925966 0.0105825 -0.00472431
-0.0105825 0.00888171 -0.0158737
-0.0103935 0.00831479 -0.0145509
-0.00888171 0.00699199 -0.00774788
-0.00982658 0.00888171 -0.0179524
-0.00888171 0.00151178 -0.00377945
-0.00869274 -0.00491329 0
0.000377945 0.00510226 0.00245664
-0.00812582 0.0132281 -0.0075589
0.00132281 0.00812582 -0.00321253
0.0190862 -0.00377945 0.0102045
0.0313695 -0.0132281 0.0221098
0.0213539 -0.0075589 0.0179524
0.0258892 -0.00736993 0.0120942
-0.0096376 0.0132281 0.0041574
-0.0171965 0.0593374 0.0213539
-0.0175745 0.0565028 0.0266451
-0.0109604 -0.00321253 0.0115273
-0.00396842 -0.0472432 -0.00434637
-0.00396842 -0.0332592 -0.00661404
-0.0102045 -0.0228657 0.0130391
-0.0187083 0.0154958 -0.0268341
-0.0130391 0.00472431 0.000188973
0.0300466 -0.0134171 -0.00925966
0.0075589 -0.0160627 -0.0096376
0.00283459 -0.00321253 -0.00850377
-0.00264562 0.0062361 -0.0156847
-0.00226767 -0.0247554 -0.00264562
0.00321253 -0.0219208 0.0128501
0.0120942 -0.0122832 0.020976
0.00944863 -0.00283459 0.00850377
-0.00302356 0.00434637 -0.0153068
0.0491329 -0.0113384 -0.00396842
-0.0166296 0.00340151 0.00245664
-0.00548021 0.0102045 0.00566918
-0.00736993 0.00888171 -0.0264562
-0.0230547 0.0238105 -0.0185193
-0.00604712 0.013795 -0.0105825
0.0489439 -0.0253223 0.0355268
0.0300466 -0.013606 0.0255113
-0.020976 0.0927855 0.0292908
-0.0232436 0.0971319 0.0408181
0.0020787 -0.0924076 -0.0154958
0 -0.0583925 -0.0158737
-0.0234326 -0.0134171 0.0298577
0.00453534 -0.020409 -0.00774788
-0.0105825 -0.0517785 0.0185193
-0.0402512 0.0291018 -0.048188
0.00529123 0.0434637 -0.0466762
-0.0532903 -0.00907068 -0.013795
-0.0113384 -0.0336371 -0.0113384
-0.000188973 -0.0270231 0.0183303
0.0192752 -0.0122832 0.0362827
0.0124722 0.00529123 0.0120942
-0.0170075 0.00604712 -0.00566918
Vibration 12
-0.0100155 0.00188973 0.00151178
-0.0102045 -0.00434637 0.00226767
-0.00548021 -0.00736993 0.00264562
-0.000944863 -0.00491329 0.00812582
-0.00151178 0.000944863 0.00642507
-0.00604712 0.00359048 -0.000566918
0.00774788 0.00472431 0.0117163
-0.00566918 0.00812582 -0.013795
-0.00566918 0.0132281 -0.0287238
-0.00604712 -0.00075589 0.00340151
-0.0257003 0.0147399 -0.0168186
-0.00907068 0.00566918 -0.00850377
0.0266451 -0.0177634 0.0185193
0.048377 -0.0336371 0.0389284
0.0306136 -0.0232436 0.0304246
0.0440306 -0.0270231 0.0260782
-0.00566918 -0.013795 -0.00302356
-0.00264562 -0.034771 -0.0105825
-0.00264562 -0.0302356 -0.0122832
-0.0062361 0 -0.00491329
-0.00907068 0.013795 0.000377945
-0.00869274 0.0041574 0.000566918
-0.00736993 0.020976 -0.00245664
-0.0355268 0.0126612 -0.0438416
0.013606 0.0321253 -0.000566918
-0.0141729 0.00188973 0.00359048
-0.000188973 0.00434637 0.00529123
0.000188973 -0.00170075 0.0041574
0.00283459 -0.00736993 0.00812582
0.00472431 0.00793685 0.00245664
-0.00604712 0.0075589 -0.00907068
-0.0162516 0.00491329 -0.0166296
-0.00982658 0 -0.00812582
0.00510226 -0.0102045 0.00907068
-0.0270231 0.000566918 0
0.0432747 0.041385 0.000566918
-0.0143619 -0.00680301 0.000566918
0.0145509 -0.00188973 0.0211649
-0.0546131 0.034204 -0.0381725
-0.0243775 0.0170075 -0.0232436
0.0806913 -0.05518 0.0633058
0.0457314 -0.0332592 0.0436527
-0.000944863 -0.0512116 -0.0147399
0.000188973 -0.0476211 -0.0185193
-0.0117163 0.0334482 0.00510226
-0.0107714 0.0115273 0.00377945
0.00302356 0.020409 -0.00888171
-0.0234326 0.0226767 0.0075589
-0.00340151 0.0381725 -0.00359048
-0.0682191 0.0340151 -0.0784236
0.0041574 0.0582036 -0.0839038
-0.0990216 -0.0253223 -0.0196532
0.0153068 0.0113384 0.0107714
-0.00604712 0.00944863 -0.0117163
-0.0266451 0.00680301 -0.0279679
-0.0132281 -0.00302356 -0.0109604
0.0602823 0.0268341 0.0075589
Vibration 13
0.00377945 -0.00377945 -0.00491329
0.00396842 -0.00113384 -0.00359048
0.00113384 0.000566918 0.00132281
-0.00245664 -0.00170075 0.00302356
-0.00245664 -0.00377945 0.00680301
0.000566918 -0.00529123 0.000188973
-0.00075589 -0.00377945 0.0200311
0.00075589 -0.00472431 0.000944863
0.000566918 -0.000188973 0.00132281
0.00510226 -0.00453534 -0.00529123
0.00453534 -0.00793685 -0.0020787
0.00132281 -0.00642507 0.000188973
-0.00113384 -0.00151178 -0.000944863
0.00075589 0.00132281 -0.00283459
0.00377945 -0.00075589 -0.00510226
-0.00718096 0.00113384 0.000566918
0.00113384 0.00925966 0.0041574
0.0020787 0.0236216 0.00831479
0.00151178 0.0226767 0.00604712
0.00170075 0.00585815 -0.00075589
0.00075589 0.00245664 -0.000188973
-0.000188973 0.0041574 0.00226767
0.00245664 -0.0217318 0.00396842
0.000188973 0.00264562 0.00925966
0.00604712 0.0153068 -0.00472431
-0.000566918 -0.00604712 -0.00283459
0.00264562 -0.00604712 -0.00359048
0.00340151 -0.00434637 -0.00302356
-0.0075589 -0.000566918 -0.00604712
-0.0041574 -0.00680301 -0.00642507
-0.00944863 -0.00585815 -0.00831479
-0.00529123 -0.0041574 -0.00491329
0.00226767 -0.00396842 -0.00226767
-0.0243775 0.00226767 -0.0117163
-0.00680301 -0.00566918 -0.0020787
0.0238105 0.0202201 0.00302356
0.00585815 0 -0.00548021
0.00075589 -0.00888171 0.0391173
0.0062361 -0.0119053 -0.00151178
0.000566918 -0.00888171 0.00226767
-0.000377945 0.00510226 -0.00302356
0.00529123 0.00113384 -0.00642507
0.00264562 0.0328812 0.0117163
0.00434637 0.0326923 0.00736993
-0.00170075 -0.0041574 -0.0041574
-0.00075589 0.000188973 0.00151178
0.00850377 -0.311238 -0.292341
-0.00226767 -0.159682 0.405535
0.000566918 0.370197 -0.0723765
-0.00321253 0.00264562 0.0124722
0 0.00321253 0.0151178
0.00812582 0.00340151 0.00585815
-0.00529123 -0.00793685 -0.0075589
-0.0162516 -0.00642507 -0.0113384
-0.00774788 -0.00302356 -0.0041574
0.00604712 -0.00359048 0.000377945
0.0323143 0.00869274 0.0211649
Vibration 14
-0.00982658 0.00925966 0.00869274
-0.0102045 0.00226767 0.00680301
-0.00359048 -0.00188973 -0.00396842
0.00510226 0.00359048 -0.0103935
0.00529123 0.00925966 -0.0211649
-0.00226767 0.0124722 -0.00340151
0.00170075 0.0096376 -0.0561249
-0.00264562 0.0119053 -0.000188973
-0.00226767 0.00170075 0.0041574
-0.0134171 0.0111494 0.00982658
-0.0130391 0.0183303 0.00283459
-0.00453534 0.0141729 0.000188973
0.00340151 0.00264562 0.00453534
-0.00151178 -0.00226767 0.0075589
-0.0096376 0.00283459 0.0103935
0.020409 -0.00548021 0.00548021
-0.00359048 -0.0177634 -0.00944863
-0.00340151 -0.0323143 -0.013606
-0.00396842 -0.02759 -0.0122832
-0.00472431 -0.00434637 -0.00548021
-0.00377945 -0.00850377 -0.00661404
-0.00359048 -0.0170075 -0.00925966
-0.00736993 0.0300466 0.0100155
-0.000377945 -0.00548021 -0.0170075
-0.0158737 -0.0370386 0.0126612
0.00548021 0.0128501 0.00585815
-0.00359048 0.0117163 0.00566918
-0.00812582 0.00888171 0.00396842
0.020598 -0.00113384 0.0115273
0.013606 0.0128501 0.0145509
0.0234326 0.0113384 0.0183303
0.00907068 0.00850377 0.00774788
-0.00888171 0.00888171 0.000566918
0.0644397 -0.0105825 0.0268341
0.020409 0.013984 0.00888171
-0.0582036 -0.0489439 -0.00642507
-0.0149288 -0.000566918 0.0126612
-0.000566918 0.0224877 -0.106958
-0.0187083 0.0272121 0
-0.00340151 0.0188973 -0.0041574
0.00226767 -0.0105825 0.00888171
-0.0128501 -0.00075589 0.0130391
-0.00377945 -0.0423299 -0.0170075
-0.00302356 -0.0370386 -0.0153068
-0.00453534 -0.00113384 -0.00472431
-0.00302356 -0.0196532 -0.0102045
0.0109604 -0.0583925 -0.089951
-0.0444086 -0.00774788 0.153824
0.00699199 0.184059 -0.0119053
0.00850377 -0.0062361 -0.0222988
0.000188973 -0.00661404 -0.0366607
-0.0230547 -0.00359048 -0.00774788
0.0196532 0.0145509 0.0190862
0.0404401 0.0115273 0.027401
0.0122832 0.00699199 0.00434637
-0.020598 0.00944863 -0.00736993
-0.0776677 -0.0202201 -0.0548021
Vibration 15
0.00188973 -0.00170075 0.00377945
0.00226767 -0.00075589 -0.00434637
0.000377945 -0.000188973 -0.0221098
-0.00302356 -0.00321253 -0.034582
-0.00434637 -0.000566918 -0.0421409
-0.00113384 -0.00302356 -0.0130391
0.00566918 0.00434637 -0.0797464
-0.000944863 -0.00604712 -0.000377945
-0.000944863 -0.00774788 0.0126612
0.00850377 -0.00548021 0.0166296
0.0168186 -0.00680301 0.0194642
0.0124722 -0.00377945 0.0107714
-0.000188973 -0.00075589 0.000188973
0.00377945 -0.00661404 0.00680301
0.00699199 -0.00793685 0.013984
-0.0221098 0.0124722 -0.0251334
-0.000377945 0.00869274 -0.0179524
-0.00869274 0.0120942 -0.0124722
-0.0096376 0.00888171 -0.00434637
-0.0020787 0.00321253 -0.00113384
0.00585815 0.0122832 -0.00283459
0.00604712 0.0154958 -0.0111494
-0.00188973 -0.0162516 0.00453534
0.00888171 -0.0119053 -0.00151178
-0.00907068 0.0211649 0.0257003
-0.00472431 -0.00548021 0.041196