[Molden Format]
[FREQ]
15.2
23.7
26.5
28.6
32.6
38.7
43.6
52.4
54.1
75.8
83.4
93.2
94.9
105.8
110.7
129.6
134.1
139.3
156.0
160.2
167.2
180.9
206.1
209.0
230.4
239.5
258.7
269.3
277.1
296.7
336.7
341.3
345.5
354.6
357.6
363.7
373.7
380.4
399.2
434.8
446.6
470.5
479.1
507.5
528.0
534.1
543.0
563.7
579.6
592.2
597.0
609.6
613.1
618.5
621.4
635.0
640.8
655.0
659.1
670.7
711.5
722.0
737.0
754.3
797.6
800.4
810.0
848.1
854.1
861.9
881.1
881.9
888.7
893.2
895.7
898.4
904.9
965.1
986.7
991.9
1006.0
1007.9
1008.9
1016.7
1018.9
1022.3
1035.2
1059.5
1074.9
1079.7
1083.1
1121.5
1126.4
1142.1
1167.8
1176.5
1189.1
1189.6
1217.8
1237.0
1255.1
1262.2
1267.1
1271.4
1272.8
1282.1
1284.7
1294.3
1301.4
1310.9
1338.5
1344.8
1345.5
1352.5
1353.8
1361.4
1366.8
1378.9
1390.9
1395.1
1399.9
1427.3
1457.4
1482.3
1506.4
1513.4
1522.4
1526.6
1531.1
1532.6
1559.9
1585.5
1602.1
1632.5
1671.4
1692.2
1693.5
1702.7
1706.8
1749.1
1794.7
1877.1
2263.3
2453.1
2550.9
2650.7
2652.3
2662.8
2673.1
2710.0
2723.1
2740.8
2743.3
2744.0
2748.2
2748.9
2755.5
2757.7
2760.1
2761.6
2764.4
2767.0
2769.9
2778.1
2778.9
       
[FR-COORD]
C -2.69116 -2.66281 -0.753812
C -0.0587705 -2.66281 -0.753812
C 1.2852 -0.390417 -0.753812
N 0.0257003 1.86251 -0.569941
C -2.5842 1.94869 -0.687293
C -3.97636 -0.331458 -0.824865
N -3.70575 4.32691 -0.667262
C -6.61064 -0.311427 -1.28804
N -8.75321 -0.352434 -1.7291
C -4.06404 -5.05766 -0.714127
C -3.54985 -6.90846 -2.54282
C -4.83316 -9.18634 -2.50918
C -6.63974 -9.61549 -0.60509
C -7.16017 -7.80136 1.24061
C -5.86495 -5.51706 1.1618
O -7.74466 -11.9143 -0.783102
C 4.05101 -0.38815 -0.927478
C 5.45091 -1.86214 0.762504
C 8.07404 -1.84362 0.647798
C 9.31522 -0.361316 -1.15519
C 7.90775 1.0864 -2.85972
C 5.28405 1.08338 -2.7452
C 12.1271 -0.289317 -1.2321
C -9.67483 -12.5036 0.993618
C -5.78559 5.21905 0.725844
C 4.20577 8.82237 -0.264562
C 4.56936 7.08685 1.52482
C 3.03112 4.80123 1.6006
C 1.51102 4.39229 -0.448999
C 6.52088 7.40773 3.41473
C 6.77883 5.73116 5.32279
C 5.0811 3.6022 5.54294
C 3.29644 3.17379 3.76433
O 1.00401 5.68921 -2.30112
O 3.95765 10.3822 -1.78409
O -6.90128 3.73844 2.28449
H 0.978311 -4.44917 -0.779701
H -2.66281 5.72946 -1.62649
H -2.14805 -6.53789 -4.01264
H -4.48356 -10.6403 -3.9208
H -8.55139 -8.1364 2.70949
H -6.25499 -4.08238 2.59025
H 4.49169 -2.99144 2.19322
H 9.16328 -2.96252 1.98383
H 8.86489 2.25407 -4.25831
H 4.19236 2.25879 -4.05346
H 12.8445 1.2852 -0.0684081
H 12.8636 -0.00529123 -3.15339
H 12.9949 -2.02711 -0.501344
H -10.2633 -14.3995 0.380402
H -11.2533 -11.1743 0.842251
H -8.91195 -12.5699 2.91434
H 7.76035 9.03705 3.23521
H 8.24015 5.93091 6.7467
H 5.28745 2.38653 7.17907
H 2.00273 1.5885 3.93554
H -6.52768 2.0067 2.73765

[FR-NORM-COORD]
Vibration 1
0.000377945 0.00396842 -0.0162516
0.000377945 0.00340151 -0.0181414
0.000188973 0.00340151 -0.0194642
0 0.00321253 -0.0181414
0.000188973 0.00396842 -0.0226767
0.000377945 0.00377945 -0.0226767
0.00132281 0.00434637 -0.0268341
0.00132281 0.00226767 -0.027779
0.00226767 0.000566918 -0.0323143
0 0.0041574 -0.00359048
-0.00566918 -0.00434637 0.00359048
-0.00340151 -0.00529123 0.020409
0.00510226 0.00245664 0.0300466
0.00944863 0.0119053 0.0219208
0.00680301 0.0128501 0.00510226
0.00831479 -0.000566918 0.047999
0.000188973 0.00548021 -0.020598
0.00264562 0.00377945 -0.0241885
0.00245664 0.00812582 -0.0245664
0 0.013984 -0.0213539
-0.00226767 0.0145509 -0.0188973
-0.00226767 0.0103935 -0.0183303
0 0.0194642 -0.020976
0.0217318 0.00359048 0.0638727
-0.00377945 0.0062361 -0.0353379
0.00888171 -0.000566918 0.0430858
-0.00113384 -0.0154958 0.0306136
-0.00774788 -0.0117163 0.00925966
0.00188973 0.00226767 -0.00075589
-0.00529123 -0.0353379 0.0383614
-0.0179524 -0.047999 0.0289128
-0.02759 -0.0421409 0.0107714
-0.0224877 -0.0247554 0.00151178
0.0113384 0.0113384 0.00359048
0.0173855 0.0119053 0.0544241
-0.0111494 0.00812582 -0.0391173
0.000188973 0.00340151 -0.0173855
0.00680301 0.00434637 -0.020976
-0.0117163 -0.0103935 -0.00359048
-0.0075589 -0.0122832 0.0264562
0.0149288 0.0185193 0.0287238
0.0105825 0.0200311 -0.00132281
0.00453534 -0.000377945 -0.0262672
0.00453534 0.00718096 -0.0268341
-0.00434637 0.0185193 -0.0170075
-0.0041574 0.0115273 -0.0158737
-0.00340151 0.0198421 -0.0194642
-0.000377945 0.0226767 -0.020598
0.00340151 0.020598 -0.0222988
0.0270231 -0.00377945 0.0812582
0.0147399 -0.00472431 0.0629279
0.0328812 0.0211649 0.0600933
0.0020787 -0.0394953 0.0519675
-0.0211649 -0.0631168 0.034393
-0.0387394 -0.0521564 0.00472431
-0.0294797 -0.020598 -0.0120942
-0.013984 0.00831479 -0.0353379
Vibration 2
0.00812582 -0.0130391 0.0075589
0.00831479 -0.0105825 0.00396842
0.00491329 -0.00869274 -0.00132281
0.0020787 -0.0102045 0
0.00245664 -0.0126612 0.00302356
0.00529123 -0.0143619 0.00585815
0.000566918 -0.013606 0.00283459
0.00510226 -0.0173855 0.00642507
0.00510226 -0.0194642 0.00661404
0.00604712 -0.0119053 0.0105825
0.00283459 -0.0149288 0.0128501
-0.0102045 -0.00774788 0.00831479
-0.020409 0.00283459 0.000944863
-0.0126612 0.00321253 0.00283459
0.000944863 -0.00434637 0.00774788
-0.0385504 0.0120942 -0.00736993
0.00453534 0.00264562 -0.00718096
0.0175745 0.0260782 0.0020787
0.0177634 0.054991 0.00604712
0.0041574 0.0593374 0.000566918
-0.00907068 0.0292908 -0.0141729
-0.00907068 0.00113384 -0.0179524
0.00359048 0.0982658 0.0103935
-0.0600933 0.0304246 -0.0245664
0.00075589 -0.0151178 0.00434637
0.0264562 -0.0224877 -0.0128501
0.0113384 -0.0166296 -0.0041574
0.000944863 -0.00925966 -0.000566918
0.00226767 -0.00888171 -0.00170075
0.00718096 -0.0185193 0.000566918
-0.00359048 -0.0145509 0.00548021
-0.0115273 -0.00812582 0.00642507
-0.00925966 -0.00566918 0.00359048
0.00434637 -0.0120942 -0.00396842
0.0406291 -0.0283459 -0.0211649
0.00359048 -0.0162516 0.00548021
0.0105825 -0.00907068 0.00510226
-0.00151178 -0.0134171 0.00170075
0.00944863 -0.0224877 0.0173855
-0.013984 -0.00944863 0.00907068
-0.0173855 0.0096376 -0.000188973
0.00642507 -0.00359048 0.00850377
0.02759 0.0241885 0.00718096
0.0281569 0.076156 0.0153068
-0.0198421 0.0296687 -0.0213539
-0.0200311 -0.0198421 -0.027401
-0.0232436 0.11584 0.00321253
0.00699199 0.096376 0.0115273
0.0251334 0.115273 0.0251334
-0.0799354 0.0404401 -0.0362827
-0.0419519 0.0512116 -0.0311805
-0.0750221 0.0134171 -0.0192752
0.0132281 -0.0232436 -0.000188973
-0.00661404 -0.0160627 0.00888171
-0.0192752 -0.00529123 0.00944863
-0.0153068 -0.000566918 0.00434637
0.00566918 -0.0156847 0.00529123
Vibration 3
-0.0177634 0.0117163 -0.0041574
-0.0175745 0.00907068 -0.00736993
-0.0154958 0.00736993 -0.00283459
-0.0132281 0.00831479 0.000566918
-0.0128501 0.0111494 0.00510226
-0.0158737 0.0126612 0.00642507
-0.00812582 0.013795 0.00736993
-0.0183303 0.0156847 0.0198421
-0.020787 0.0177634 0.0315584
-0.0141729 0.00944863 -0.0113384
-0.0147399 0.020409 -0.0228657
0.00170075 0.0113384 -0.0228657
0.0190862 -0.00944863 -0.0109604
0.0147399 -0.0177634 -0.0041574
-0.00226767 -0.00774788 -0.00434637
0.0404401 -0.0198421 -0.00774788
-0.0153068 0.00548021 -0.000188973
-0.0183303 0.013795 0.00925966
-0.0179524 0.0145509 0.0141729
-0.0154958 0.00661404 0.00944863
-0.0128501 -0.00264562 -0.000566918
-0.0130391 -0.00302356 -0.00529123
-0.0153068 0.00793685 0.0154958
0.0712427 -0.0496998 0.0156847
-0.00170075 0.0198421 0.0128501
0.0576366 -0.0308025 -0.0296687
0.020598 -0.0175745 -0.00925966
-0.00472431 -0.000188973 -0.00170075
-0.00529123 0.00548021 -0.00264562
0.00944863 -0.0221098 0.00321253
-0.0160627 -0.013984 0.013795
-0.0328812 -0.00075589 0.0130391
-0.0270231 0.00604712 0.00566918
0.00264562 0.00151178 -0.00680301
0.0924076 -0.0440306 -0.0489439
-0.00075589 0.0238105 0.0171965
-0.0190862 0.00812582 -0.0126612
-0.00774788 0.0103935 0.00377945
-0.0268341 0.0355268 -0.0304246
0.00264562 0.0188973 -0.0306136
0.0245664 -0.0315584 0.0020787
-0.00548021 -0.0145509 0.00151178
-0.020598 0.020409 0.0128501
-0.0200311 0.0219208 0.0219208
-0.0105825 -0.00907068 -0.00453534
-0.0113384 -0.00944863 -0.0122832
-0.0183303 0.00359048 0.0234326
-0.0109604 0.0156847 0.0183303
-0.0166296 0.00529123 0.0105825
0.0931635 -0.0587705 0.0226767
0.0493218 -0.0736993 0.034393
0.0946753 -0.0381725 0.00680301
0.0224877 -0.0321253 0.00359048
-0.0245664 -0.0170075 0.0228657
-0.0496998 0.00359048 0.0183303
-0.0396842 0.0164406 0.00548021
-0.00434637 0.0228657 0.0168186
Vibration 4
-0.0096376 0.00396842 -0.00718096
-0.0096376 0.00472431 -0.00359048
-0.0100155 0.00491329 0.00151178
-0.0103935 0.00491329 0.00321253
-0.0105825 0.0041574 -0.000944863
-0.0096376 0.00377945 -0.00774788
-0.0124722 0.00302356 0.00245664
-0.00831479 0.00321253 -0.0153068
-0.00699199 0.00245664 -0.0221098
-0.00831479 0.00321253 -0.0075589
-0.00661404 0.00245664 -0.0062361
-0.00132281 -0.000377945 -0.00188973
0.00245664 -0.00264562 0.00113384
-0.00132281 -0.000566918 -0.00188973
-0.00680301 0.00226767 -0.0062361
0.0100155 -0.00680301 0.00736993
-0.00944863 0.00453534 0.00925966
-0.0153068 0.00377945 0.0132281
-0.0143619 0.0122832 0.0294797
-0.00812582 0.0217318 0.0417629
-0.00226767 0.0183303 0.0338261
-0.00283459 0.00944863 0.0173855
-0.00793685 0.0370386 0.0646286
0.0190862 -0.0122832 0.0153068
-0.0187083 -0.00188973 -0.0041574
-0.00226767 0.00340151 0.00321253
0.0217318 -0.013984 -0.0187083
0.00925966 -0.00529123 -0.00812582
-0.0096376 0.00434637 0.00396842
0.0604712 -0.0432747 -0.0538572
0.0791795 -0.05518 -0.0668963
0.0578256 -0.0357158 -0.0427078
0.0232436 -0.0109604 -0.013984
-0.0236216 0.0130391 0.013606
-0.0230547 0.0179524 0.0215429
-0.0245664 -0.00548021 -0.0117163
-0.00907068 0.00491329 -0.0041574
-0.0103935 0.00661404 0.00888171
-0.00888171 0.00396842 -0.00812582
0.000566918 -0.00132281 -0.000566918
0.000188973 -0.00151178 -0.00075589
-0.00925966 0.00359048 -0.00831479
-0.0202201 -0.00264562 0.00472431
-0.0192752 0.0126612 0.0336371
0.00264562 0.0238105 0.0419519
0.00132281 0.00736993 0.0122832
-0.0266451 0.0381725 0.0750221
0.0062361 0.0464873 0.0716206
-0.00434637 0.0400622 0.0674632
0.027779 -0.0173855 0.0226767
0.0113384 -0.0215429 0.0160627
0.0253223 -0.00245664 0.0130391
0.0729434 -0.0544241 -0.0685971
0.108092 -0.0778567 -0.0935414
0.069164 -0.0400622 -0.0474321
0.00472431 0.00604712 0.00510226
-0.0260782 -0.0062361 -0.013795
Vibration 5
0.00377945 -0.00472431 -0.0187083
0.00359048 -0.00718096 -0.0294797
0.00548021 -0.00812582 -0.0241885
0.00718096 -0.00774788 -0.020409
0.00718096 -0.00566918 -0.0117163
0.00472431 -0.00396842 -0.00718096
0.00888171 -0.00434637 -0.00377945
0.00113384 -0.00188973 0.0126612
-0.00226767 -0.000566918 0.0296687
-0.00075589 -0.00226767 -0.013795
-0.0391173 0.0103935 -0.0368497
-0.0470542 0.0147399 -0.0315584
-0.0145509 0.00661404 -0.00264562
0.0249444 -0.00604712 0.020787
0.0309915 -0.00982658 0.0147399
-0.0272121 0.0124722 -0.00113384
0.0062361 -0.00793685 -0.0134171
-0.00283459 -0.0122832 -0.0096376
-0.0020787 -0.00548021 0.0103935
0.00793685 0.00585815 0.0264562
0.0171965 0.00699199 0.0200311
0.0162516 -0.000188973 -0.000188973
0.00831479 0.0170075 0.0517785
0.0105825 0.00151178 0.0360938
0.0230547 -0.0041574 0.0173855
-0.0168186 0.00907068 0.0020787
-0.0126612 0.00434637 -0.00359048
-0.00396842 -0.00188973 -0.0128501
0.0062361 -0.00566918 -0.0196532
-0.0183303 0.00680301 0.0020787
-0.0192752 0.00510226 0.000566918
-0.013984 0 -0.00718096
-0.00661404 -0.00340151 -0.013795
0.0100155 -0.00944863 -0.0226767
-0.0219208 0.0132281 0.00718096
0.0385504 -0.00566918 0.0270231
0.00151178 -0.00831479 -0.0391173
0.00188973 -0.00548021 -0.0113384
-0.0631168 0.0164406 -0.0580146
-0.0774788 0.0241885 -0.0489439
0.0500777 -0.0124722 0.0430858
0.0612271 -0.0187083 0.0319364
-0.0107714 -0.020787 -0.0215429
-0.00944863 -0.00831479 0.013984
0.0249444 0.0141729 0.0311805
0.0232436 0.00075589 -0.00510226
-0.00850377 0.0190862 0.0595264
0.0243775 0.0217318 0.0585815
0.00907068 0.0200311 0.0578256
-0.00510226 0.00699199 0.034204
0.00907068 0.00472431 0.0799354
0.0515895 -0.0141729 0.0192752
-0.0221098 0.0102045 0.0075589
-0.0238105 0.00699199 0.00491329
-0.0158737 -0.00132281 -0.00793685
-0.00170075 -0.00793685 -0.0202201
0.0423299 -0.00661404 0.020598
Vibration 6
-0.0075589 0.00264562 -0.0198421
-0.00680301 0.000944863 -0.0253223
-0.00340151 -0.00113384 -0.0226767
-0.000377945 0.000188973 -0.0181414
0.000377945 0.00226767 -0.00793685
-0.00396842 0.00529123 -0.0117163
0.00132281 0.00359048 0.013795
-0.00491329 0.0170075 -0.00566918
-0.00604712 0.0306136 -0.00151178
-0.00661404 0.00302356 -0.0145509
0.0351489 -0.0257003 0.0255113
0.0444086 -0.0306136 0.0383614
0.00869274 -0.00680301 0.0100155
-0.0379835 0.0236216 -0.0330702
-0.0445975 0.0268341 -0.0445975
0.0260782 -0.0166296 0.0306136
-0.00302356 -0.00377945 -0.0160627
-0.0105825 -0.00793685 -0.0134171
-0.0100155 -0.00566918 0.000188973
-0.00188973 0.000944863 0.0113384
0.00566918 0.00302356 0.00680301
0.00491329 0.000566918 -0.00699199
-0.00170075 0.00642507 0.0289128
-0.00944863 0.00699199 0
0.0238105 -0.00718096 0.0536682
-0.00188973 0.00642507 0.00132281
-0.00529123 0.000377945 -0.0041574
-0.00585815 0.000566918 -0.0126612
0.00075589 0.00188973 -0.0177634
-0.00888171 -0.00491329 0.00075589
-0.0153068 -0.00812582 -0.00113384
-0.0179524 -0.00661404 -0.00831479
-0.0132281 -0.00245664 -0.013984
0.00264562 -0.000944863 -0.0190862
0.00075589 0.0113384 0.00585815
0.0531013 -0.0219208 0.061794
-0.00812582 0.000188973 -0.0289128
-0.0120942 0.0062361 0.0062361
0.0614161 -0.0442196 0.0457314
0.0788016 -0.0527234 0.0699199
-0.0678412 0.0436527 -0.0565028
-0.0793685 0.048188 -0.075589
-0.0168186 -0.0126612 -0.0213539
-0.0160627 -0.00850377 0.00264562
0.0119053 0.00718096 0.0143619
0.0107714 0.00226767 -0.0103935
-0.0119053 0.00548021 0.0364717
0.00982658 0.0113384 0.0340151
-0.00283459 0.00661404 0.0309915
0.0154958 -0.00888171 0.0249444
-0.013984 -0.00548021 -0.0612271
-0.0514005 0.0498888 0.0181414
-0.00642507 -0.0062361 0.00604712
-0.0181414 -0.0119053 0.00245664
-0.0238105 -0.00888171 -0.00925966
-0.0149288 -0.00170075 -0.0196532
0.0657625 -0.0251334 0.0393063
Vibration 7
-0.00113384 -0.00113384 0.0219208
-0.00075589 -0.00170075 0.0120942
-0.000377945 -0.00245664 -0.00226767
0.000566918 -0.00113384 -0.0173855
0.000566918 -0.000566918 -0.00907068
-0.00151178 -0.00132281 0.0226767
0.00642507 0.00283459 -0.0391173
-0.00812582 -0.0041574 0.0597153
-0.0153068 -0.00774788 0.0950532
0.00359048 -0.00396842 0.020409
0.0183303 -0.000566918 0.020409
0.0232436 -0.00321253 0.00850377
0.0113384 -0.00944863 -0.0041574
-0.000944863 -0.0151178 -0.00226767
-0.00434637 -0.0122832 0.0103935
0.0143619 -0.00982658 -0.0183303
-0.000188973 -0.00321253 -0.00188973
-0.00075589 0.0154958 0.0149288
-0.00075589 0.0164406 0.0170075
-0.000377945 -0.0020787 0.0020787
0 -0.020976 -0.0143619
-0.000188973 -0.020787 -0.0158737
-0.000377945 -0.00132281 0.00377945
-0.0128501 -0.00812582 -0.0474321
0.0164406 0.0353379 -0.0449755
-0.0111494 0.020976 0.0226767
-0.00396842 -0.00132281 -0.00113384
-0.0103935 0.00264562 -0.013984
0.00566918 0.000566918 -0.0253223
0.00812582 -0.0270231 -0.00869274
-0.000377945 -0.0353379 -0.0149288
-0.0228657 -0.0173855 -0.0130391
-0.0279679 0.00132281 -0.0122832
0.0168186 -0.0109604 -0.034582
-0.0196532 0.0406291 0.0440306
0.0153068 0.0676522 -0.0158737
-0.000944863 -0.00188973 0.0168186
0.00982658 -0.013606 -0.0600933
0.0260782 0.00472431 0.0291018
0.034771 0.000188973 0.00793685
-0.00812582 -0.0211649 -0.0103935
-0.0143619 -0.0168186 0.0122832
-0.00132281 0.0302356 0.0260782
-0.000944863 0.0321253 0.0302356
0.000377945 -0.0353379 -0.0260782
0 -0.0340151 -0.027779
-0.00188973 0.00340151 -0.00170075
0.00151178 -0.00869274 0.00340151
-0.00075589 0.00170075 0.0113384
-0.0141729 -0.00226767 -0.0638727
-0.0041574 0.000566918 -0.061983
-0.0383614 -0.020409 -0.0376055
0.0236216 -0.0389284 -0.00925966
0.00812582 -0.05518 -0.0211649
-0.0349599 -0.0187083 -0.0126612
-0.0449755 0.0154958 -0.0107714
0.00831479 0.0735103 0.0126612
Vibration 8
-0.00718096 -0.00113384 -0.00113384
-0.00680301 -0.00718096 -0.0113384
-0.000377945 -0.0111494 -0.00680301
0.00434637 -0.00850377 0.00434637
0.00377945 -0.00075589 0.00321253
-0.00188973 0.0020787 0.00831479
0.0130391 0.00321253 -0.0111494
-0.00434637 0.00888171 0.0232436
-0.0075589 0.0141729 0.0376055
-0.00944863 0.000188973 -0.00283459
0.00245664 -0.00548021 0.00585815
0.00718096 -0.00793685 0.00736993
-0.00132281 -0.00529123 0
-0.0166296 0.00170075 -0.0111494
-0.0202201 0.00377945 -0.0122832
0.00774788 -0.00982658 0.00472431
-0.000944863 -0.013606 -0.0128501
0.00113384 -0.0447865 -0.0419519
0.00151178 -0.0319364 -0.034771
0.000566918 0.0143619 0.00264562
-0.00113384 0.0376055 0.0239995
-0.00132281 0.0217318 0.0147399
0.000377945 0.0406291 0.020787
0.00377945 -0.0105825 0.000377945
0.00869274 0.0258892 -0.0323143
-0.0120942 -0.020598 -0.00831479
-0.00491329 -0.00529123 0.00585815
0.013795 -0.0181414 0.00793685
0.00548021 -0.0162516 0.013606
-0.0181414 0.0217318 0.013795
-0.00132281 0.0234326 0.0132281
0.0302356 -0.00283459 0.00340151
0.0370386 -0.0228657 0.00113384
0.00642507 -0.00302356 0.0200311
-0.0185193 -0.0336371 -0.020409
-0.0120942 0.0472432 -0.02759
-0.0115273 -0.0096376 -0.0219208
0.0272121 -0.00434637 -0.0113384
0.00888171 -0.00793685 0.0111494
0.0177634 -0.0122832 0.0145509
-0.0251334 0.00510226 -0.0185193
-0.0313695 0.00812582 -0.0194642
0.00283459 -0.0791795 -0.0678412
0.00245664 -0.0566918 -0.0563138
-0.00245664 0.0695419 0.0495108
-0.00188973 0.0383614 0.0296687
-0.0221098 0.0402512 0.0351489
0.00925966 0.0599043 0.0270231
0.0126612 0.0445975 0.0153068
0.0168186 -0.0171965 0.00888171
-0.00264562 -0.0198421 -0.013606
-0.00377945 0.00453534 0.00396842
-0.0408181 0.0398732 0.020598
-0.0103935 0.0438416 0.0196532
0.0476211 -0.00661404 -0.00151178
0.0612271 -0.0434637 -0.0062361
-0.0262672 0.0493218 -0.00793685
Vibration 9
0.0102045 0.00113384 -0.0020787
0.0096376 0.0124722 -0.0134171
0.00132281 0.0181414 -0.0124722
-0.00812582 0.0128501 -0.0103935
-0.00907068 0.00132281 -0.00434637
-0.000188973 -0.00434637 0.00245664
-0.0192752 -0.00359048 -0.00359048
-0.00264562 -0.0188973 0.0162516
-0.00491329 -0.0336371 0.0287238
0.0190862 -0.00359048 0.00736993
0.0156847 -0.00472431 0.00774788
0.0124722 -0.00302356 0.00925966
0.0120942 0.00075589 0.0096376
0.0228657 -0.0020787 0.0154958
0.0266451 -0.00434637 0.0145509
0.000377945 0.00680301 0.00510226
0.00170075 0.0188973 -0.00529123
-0.0103935 -0.0226767 -0.0306136
-0.0103935 -0.0396842 -0.0251334
0.00377945 -0.0117163 0.00774788
0.0170075 0.0349599 0.0366607
0.0164406 0.048377 0.0287238
0.00434637 -0.034204 0.0115273
-0.0321253 0.0300466 -0.0222988
-0.0226767 -0.0119053 -0.00302356
0.020976 0.00264562 -0.0075589
0.00245664 0.000944863 -0.00566918
-0.0130391 0.0117163 -0.0062361
-0.0171965 0.0192752 -0.00491329
0.00396842 -0.0130391 -0.00453534
-0.00529123 -0.0170075 -0.00699199
-0.0179524 -0.00718096 -0.00907068
-0.0215429 0.00699199 -0.00850377
-0.0226767 0.0226767 -0.000377945
0.041385 0.00283459 -0.0107714
-0.0151178 -0.0149288 -0.000566918
0.0162516 0.0162516 -0.020409
-0.0257003 0.000944863 -0.00377945
0.013606 -0.0062361 0.00548021
0.00850377 -0.00321253 0.00869274
0.0281569 -0.00245664 0.020409
0.034393 -0.00585815 0.0183303
-0.020409 -0.0444086 -0.0542351
-0.0211649 -0.076156 -0.0468652
0.0279679 0.0589595 0.0640617
0.027779 0.0795575 0.0468652
0.0162516 -0.0476211 0.0222988
0.00812582 -0.027779 0.013795
-0.0100155 -0.0457314 0.000944863
-0.054991 0.0423299 -0.0381725
-0.00907068 0.0559359 -0.0353379
-0.0563138 0.00925966 -0.0132281
0.0130391 -0.0196532 -0.0020787
-0.00396842 -0.0272121 -0.00680301
-0.0241885 -0.0111494 -0.0113384
-0.0315584 0.0149288 -0.00944863
-0.00680301 -0.0119053 0.00359048
Vibration 10
0.00491329 0.00283459 -0.0315584
0.00491329 0.00718096 -0.0468652
-0.000377945 0.0096376 -0.0258892
-0.00245664 0.00604712 -0.0062361
-0.00396842 0.00359048 -0.00113384
0.000377945 0.00132281 -0.0075589
-0.00642507 0.00170075 0.00907068
-0.00434637 -0.00453534 0.0188973
-0.0096376 -0.0120942 0.0449755
0.00925966 0.000944863 -0.0243775
0.00642507 -0.00831479 -0.0156847
0.00812582 -0.00925966 0.000188973
0.0115273 0.000566918 0.00548021
0.0160627 0.00925966 -0.00170075
0.0153068 0.00850377 -0.0162516
0.0102045 0 0.0221098
0.000944863 0.0103935 -0.0134171
-0.0107714 0.0381725 0.020409
-0.0103935 0.0311805 0.0328812
0.000377945 -0.00793685 0.00793685
0.0113384 -0.0334482 -0.0228657
0.0103935 -0.020598 -0.0309915
0.00113384 -0.0236216 0.0162516
-0.0181414 0.0311805 0.00188973
-0.0156847 -0.0020787 -0.00188973
-0.00529123 -0.013795 -0.00170075
-0.00321253 -0.00340151 0.00869274
0.0100155 -0.0126612 0.0041574
-0.00491329 0.00151178 0.0119053
-0.0162516 0.0143619 0.0181414
-0.00151178 0.00907068 0.0117163
0.0264562 -0.0147399 -0.00510226
0.0315584 -0.0247554 -0.00812582
-0.0160627 0.0251334 0.0300466
-0.00736993 -0.0234326 -0.0109604
-0.0262672 -0.0020787 -0.0102045
0.00888171 0.00982658 -0.0678412
-0.00170075 0.00831479 0.020787
0.0020787 -0.0149288 -0.0213539
0.00604712 -0.0168186 0.0075589
0.020787 0.0158737 0.00434637
0.0200311 0.0147399 -0.020976
-0.020598 0.0657625 0.0355268
-0.0187083 0.0559359 0.0602823
0.020598 -0.0625499 -0.0406291
0.0175745 -0.034771 -0.0487549
0.0062361 -0.020598 0.00888171
0.00925966 -0.0400622 0.0170075
-0.0115273 -0.0241885 0.0300466
-0.0291018 0.0326923 0.00774788
-0.00359048 0.0455424 -0.0266451
-0.0425188 0.0368497 0.0117163
-0.0366607 0.0315584 0.0304246
-0.0102045 0.0224877 0.0187083
0.041574 -0.0239995 -0.013795
0.0510226 -0.0417629 -0.0185193
-0.0292908 -0.00075589 -0.00340151
Vibration 11
0.0151178 -0.0100155 -0.00869274
0.0151178 -0.00302356 -0.0141729
0.00925966 0.00113384 -0.00132281
0.00434637 -0.00245664 0.0062361
0.00377945 -0.00869274 0.0102045
0.0096376 -0.0117163 0.00925966
-0.00264562 -0.0120942 0.0103935
0.00548021 -0.020598 0.0317474
0.000566918 -0.0317474 0.0561249
0.00812582 -0.00585815 -0.0156847
0.0188973 -0.0217318 0.00377945
-0.00283459 -0.0100155 -0.0020787
-0.0332592 0.0156847 -0.0249444
-0.0493218 0.034204 -0.0474321
-0.02759 0.020976 -0.0423299
-0.0517785 0.0249444 -0.0262672
0.0102045 0.0075589 0.00359048
0.0102045 0.0075589 0.00377945
0.0102045 0.00377945 0.00132281
0.0109604 0.000188973 -0.000944863
0.0113384 0.00604712 0.00377945
0.0113384 0.00944863 0.00604712
0.0111494 -0.0126612 -0.0100155
0.0417629 -0.0153068 0.062361
-0.0196532 -0.0173855 -0.0111494
0.00793685 0.0107714 0.0020787
0.00491329 0.00548021 -0.00283459
-0.00283459 0.0107714 0.00170075
0.00075589 0.00377945 0.00075589
0.0124722 -0.00264562 -0.00850377
0.00510226 0.00188973 -0.00377945
-0.00925966 0.0143619 0.00642507
-0.0120942 0.0179524 0.00850377
-0.00113384 -0.00585815 -0.00453534
0.0128501 0.0166296 0.00718096
-0.0315584 -0.0153068 -0.0185193
0.0202201 0.000377945 -0.0258892
-0.00321253 -0.00850377 0.0153068
0.0449755 -0.0438416 0.0228657
0.00585815 -0.0217318 0.0120942
-0.0805023 0.0595264 -0.0710537
-0.0389284 0.0338261 -0.0580146
0.0100155 0.00907068 0.00472431
0.0096376 0.0020787 0.000566918
0.0117163 0.00661404 0.00434637
0.0119053 0.0126612 0.00812582
0.0232436 -0.0238105 -0.00264562
0.00604712 -0.0041574 -0.0107714
0.00491329 -0.0217318 -0.0243775
0.0704868 -0.0377945 0.104124
-0.00188973 -0.0612271 0.114895
0.122643 0.0232436 0.0315584
0.0232436 -0.0117163 -0.0166296
0.00982658 -0.00396842 -0.00774788
-0.0168186 0.020409 0.0119053
-0.0217318 0.0264562 0.0145509
-0.0296687 -0.0102045 -0.0020787
Vibration 12
0.00925966 0.00113384 -0.00377945
0.00944863 0.0075589 0.0109604
0.00377945 0.0107714 0.0130391
-0.00793685 0.0062361 -0.00472431
-0.0062361 0.000188973 -0.0311805
0.00113384 -0.00359048 -0.0196532
-0.0107714 -0.000377945 -0.0604712
-0.000566918 -0.0096376 -0.0109604
-0.00283459 -0.0122832 0.00075589
0.0122832 -0.000188973 -0.00151178
0.013984 -0.00321253 0.00226767
0.00510226 0.00170075 -0.000944863
-0.00321253 0.00982658 -0.00718096
-0.00132281 0.0115273 -0.00812582
0.0062361 0.00680301 -0.00566918
-0.0175745 0.0171965 -0.013795
0.00453534 0.0226767 0.0243775
0.00850377 0.0257003 0.0234326
0.00812582 0.0179524 0.0111494
0.00434637 0.00736993 0
0.000944863 0.0211649 0.0145509
0.00170075 0.0281569 0.0264562
0.00434637 -0.0241885 -0.0334482
0.013984 0.00510226 0.0162516
0.0262672 0.0147399 -0.0170075
-0.027779 -0.0368497 -0.0096376
-0.0147399 -0.0164406 0.00888171
-0.0228657 -0.0105825 0.0217318
-0.0253223 0.00113384 0.020976
-0.00113384 -0.0241885 -0.00661404
0.0075589 -0.0281569 -0.0105825
-0.00151178 -0.0196532 0.00472431
-0.0188973 -0.0113384 0.0200311
-0.020787 0.0268341 0.034393
-0.0489439 -0.0655735 -0.0351489
0.0784236 0.0251334 0.0325033
0.013795 0.0100155 0.0224877
-0.0156847 -0.0120942 -0.0850377
0.0211649 -0.00925966 0.00774788
0.00434637 -0.000377945 0.000944863
-0.00736993 0.0171965 -0.0124722
0.00661404 0.00925966 -0.00793685
0.0117163 0.0313695 0.0300466
0.0109604 0.0166296 0.00793685
-0.00188973 0.0224877 0.013606
-0.000188973 0.0353379 0.034393
0.0377945 -0.0353379 -0.0393063
-0.0160627 -0.0291018 -0.0421409
-0.00718096 -0.0360938 -0.047999
0.0111494 0.00453534 0.020598
0.00642507 -0.000566918 0.0449755
0.0449755 0.00264562 0.00377945
0.00340151 -0.0285349 -0.0143619
0.020976 -0.0360938 -0.0232436
0.00529123 -0.0188973 0.00453534
-0.0283459 -0.0020787 0.0306136
0.0980768 0.027779 0.0272121
Vibration 13
0.00151178 -0.00245664 -0.0325033
0.00151178 -0.00529123 -0.0334482
0.00264562 -0.00604712 -0.00151178
0.00245664 -0.00850377 0.020598
0.00283459 -0.00340151 0.0141729
0.00188973 -0.000944863 -0.00661404
0.0111494 0.00075589 0.0232436
0.000377945 0.0062361 0.00302356
-0.0020787 0.0147399 0.0132281
0 -0.00170075 -0.0360938
-0.0115273 -0.00699199 -0.0334482
-0.00510226 -0.0109604 -0.0120942
0.0119053 -0.00736993 0.00453534
0.0181414 0.00170075 -0.00245664
0.0126612 0.00340151 -0.0222988
0.0243775 -0.0160627 0.0362827
0.00321253 0 0.00396842
0.00585815 -0.00226767 -0.000944863
0.00585815 -0.00113384 -0.00529123
0.00283459 0.00283459 -0.0041574
-0.000188973 0.0102045 0.00453534
0.000188973 0.00812582 0.00812582
0.00264562 -0.00170075 -0.0156847
-0.0232436 0.0291018 0.000188973
0.00491329 0.0096376 0.0075589
-0.0124722 -0.0103935 -0.00170075
0.00850377 -0.00793685 -0.00377945
-0.0120942 0.0062361 0.0226767
0.00680301 -0.0128501 0.0134171
0.0379835 -0.0264562 -0.0317474
0.0170075 -0.0041574 -0.00925966
-0.0309915 0.0383614 0.0396842
-0.0421409 0.0389284 0.0506447
0.0296687 -0.0321253 -0.00699199
-0.0427078 -0.0168186 -0.00321253
-0.0228657 0.0158737 -0.00718096
0.000377945 -0.00548021 -0.05518
0.0188973 -0.000566918 0.0296687
-0.0251334 -0.00925966 -0.0468652
-0.0120942 -0.0164406 -0.00812582
0.0300466 0.00529123 0.0096376
0.0202201 0.00888171 -0.0255113
0.00812582 -0.00604712 -0.00245664
0.00831479 -0.00453534 -0.0102045
-0.00283459 0.0162516 0.00774788
-0.00226767 0.0119053 0.0130391
0.0100155 0.00585815 -0.0306136
-0.00529123 -0.0173855 -0.0211649
0.00340151 0.00245664 -0.00642507
-0.0287238 0.0264562 0.013606
-0.0062361 0.0430858 -0.0546131
-0.0676522 0.048377 0.0185193
0.0744552 -0.0587705 -0.0697309
0.0362827 -0.0181414 -0.0272121
-0.0529123 0.0672742 0.0638727
-0.0719986 0.0663294 0.0767229
-0.0438416 0.0113384 -0.00793685
Vibration 14
0.00151178 0.00132281 0.00472431
0.00151178 0.000377945 0.00151178
0.00132281 0.000188973 -0.00302356
0.00151178 -0.000188973 -0.00151178
0.00132281 0.000944863 0.00283459
0.00132281 0.00113384 0.00340151
0.00264562 0.00151178 0.00642507
0.0020787 0.00075589 -0.000566918
0.00302356 0.000566918 -0.00529123
0.00151178 0.00151178 0.00604712
0.00170075 0.00283459 0.00472431
0.00132281 0.00321253 0.00283459
0.00075589 0.00264562 0.00226767
0.00132281 0.000944863 0.00396842
0.0020787 0.000566918 0.0062361
0.000377945 0.00302356 -0.00075589
0.00113384 0.00132281 -0.00642507
0.00188973 0.0075589 -0.000566918
0.00075589 0.00944863 -0.000377945
0.00075589 0.00548021 -0.00548021
0.00113384 -0.00170075 -0.0102045
0 -0.00434637 -0.0107714
0.00132281 -0.00548021 0.0120942
-0.00283459 0.00245664 -0.00453534
-0.000377945 0.000377945 0.00283459
-0.00453534 -0.00491329 -0.00188973
0.000188973 -0.00264562 -0.00075589
-0.000566918 -0.00226767 0
0.00283459 -0.00264562 -0.00245664
0.000944863 -0.00396842 -0.00170075
-0.00188973 -0.00226767 0.000188973
-0.00529123 0.000566918 0.00283459
-0.00453534 0 0.0020787
0.00718096 -0.00302356 -0.00396842
-0.0134171 -0.00869274 -0.0041574
-0.00642507 -0.00113384 -0.00302356
0.00113384 0.000188973 0.00226767
0.00377945 0.00245664 0.00944863
0.00188973 0.00359048 0.00510226
0.000944863 0.00396842 0.00188973
0.000944863 -0.000188973 0.00340151
0.00283459 -0.000566918 0.00736993
0.00170075 0.0122832 0.00302356
0.00359048 0.0158737 0.00264562
-0.00170075 -0.00434637 -0.0141729
-0.000377945 -0.00925966 -0.0147399
0.0190862 -0.317663 0.423299
0.0173855 0.480935 0.0910848
-0.0311805 -0.210327 -0.432558
0.00642507 -0.00188973 0.000188973
-0.00661404 -0.00321253 -0.0147399
-0.00944863 0.0115273 -0.00151178
0.00377945 -0.00642507 -0.00396842
-0.00151178 -0.00302356 0
-0.00793685 0.00302356 0.00491329
-0.00661404 0.00188973 0.00302356
-0.0096376 -0.0020787 -0.0041574
Vibration 15
-0.00585815 -0.0154958 -0.0247554
-0.00566918 -0.0111494 -0.00774788
-0.00736993 -0.00925966 0.0177634
-0.00604712 -0.00831479 0.0168186
-0.00453534 -0.0134171 -0.0141729
-0.00377945 -0.013795 -0.0192752
-0.00793685 -0.013606 -0.041574
-0.00680301 -0.0132281 -0.00529123
-0.0105825 -0.0153068 0.013984
-0.0096376 -0.0151178 -0.0315584
-0.0241885 -0.0196532 -0.0309915
-0.0224877 -0.0215429 -0.0151178
-0.00718096 -0.0200311 -0.000566918
-0.0020787 -0.0103935 -0.00850377
-0.00321253 -0.0105825 -0.0236216
0.00680301 -0.0298577 0.0306136
-0.00736993 -0.00321253 0.0255113
0.00226767 0.00075589 0.0202201
0.0020787 0.00604712 0.00642507
-0.00982658 0.00699199 -0.00113384
-0.0202201 0.0107714 0.0109604
-0.0188973 0.00434637 0.0234326
-0.0105825 0.00075589 -0.0266451
-0.0253223 0.00377945 0.00774788
0.0117163 0.00132281 -0.0249444
0.0217318 0.0257003 0.00888171
0.00170075 0.0149288 0.00188973
0.00585815 0.0120942 0.00604712
-0.00642507 0.00396842 0.0168186
0.00283459 0.0264562 0.00151178
0.0162516 0.0281569 0.000377945
0.0289128 0.0181414 -0.00075589
0.0251334 0.0120942 0.00434637