[Molden Format]
[FREQ]
8.6
10.9
18.9
31.6
34.8
38.9
46.3
54.8
59.0
61.5
76.1
80.2
107.6
110.6
120.8
131.4
145.1
154.1
171.8
180.9
186.4
198.9
216.3
234.3
242.8
250.7
270.3
278.5
302.9
325.3
332.1
346.5
350.8
354.7
358.9
368.7
392.4
405.0
422.8
439.2
471.7
482.5
503.7
508.7
532.7
536.7
547.9
556.7
557.8
589.4
610.3
616.6
622.2
649.1
654.0
669.9
677.9
680.6
707.6
719.1
733.2
767.0
776.9
792.6
820.8
833.0
840.6
864.7
882.9
884.8
896.1
899.6
918.1
945.0
949.0
953.8
971.4
1003.1
1007.4
1008.2
1010.2
1013.5
1015.1
1016.1
1032.9
1048.9
1061.8
1071.3
1079.1
1088.6
1127.4
1141.6
1145.9
1153.8
1160.6
1177.5
1178.4
1182.2
1197.2
1210.5
1243.7
1247.4
1260.7
1266.2
1270.3
1273.7
1283.3
1287.7
1289.2
1297.1
1306.3
1308.6
1315.7
1325.2
1329.0
1345.9
1347.0
1349.9
1353.0
1373.0
1390.6
1412.8
1422.5
1432.4
1478.2
1518.2
1525.7
1529.2
1532.9
1539.0
1542.9
1574.7
1584.1
1617.1
1696.6
1702.0
1704.1
1707.9
1712.0
1715.3
1721.4
1882.2
1922.5
2451.6
2652.6
2655.2
2667.0
2675.4
2723.3
2740.9
2743.6
2745.7
2747.8
2748.2
2749.2
2750.7
2752.5
2762.5
2763.2
2763.8
2766.2
2767.0
2768.8
2771.1
2780.2
       
[FR-COORD]
C -0.378512 -4.89741 -1.35399
C 2.21117 -4.89741 -1.35399
C 3.63716 -2.62596 -1.35399
N 2.31983 -0.40289 -1.38989
C -0.301411 -0.292908 -1.33944
C -1.68205 -2.53299 -1.34265
N -1.45868 2.13841 -1.42977
C -4.35015 -2.44549 -1.24495
N -6.53448 -2.32342 -1.1688
C -1.82585 -7.25938 -1.34926
C -3.21934 -7.96104 -3.48862
C -4.5652 -10.2051 -3.50261
C -4.51342 -11.7407 -1.33434
C -3.13978 -11.0676 0.811826
C -1.78541 -8.81009 0.781591
O -5.90539 -13.8787 -1.60967
C 3.80534 1.88141 -1.43279
C 5.70981 2.16695 0.379835
C 7.1785 4.34524 0.368308
C 6.75804 6.22835 -1.43506
C 4.88003 5.90067 -3.26242
C 3.40812 3.72333 -3.28472
C 8.33237 8.56367 -1.43903
C -6.05525 -15.5335 0.499266
C -1.93489 3.41228 0.953745
C 0.202768 3.14564 2.98539
C 1.18675 5.72133 3.44384
C -0.0678412 7.52319 1.93848
C -2.05999 6.32265 0.397787
C 3.11578 6.41959 5.05747
C 3.81233 8.97525 5.13628
C 2.59233 10.7524 3.63016
C 0.620586 10.0401 2.0084
O -3.54834 7.27658 -1.00515
O 0.858503 1.20451 3.92156
O -4.10203 2.59516 2.17961
H 3.28586 -6.65354 -1.36552
H -2.97802 2.2227 -2.64127
H -3.2371 -6.73517 -5.14572
H -5.65992 -10.7915 -5.1393
H -3.10747 -12.2541 2.48216
H -0.694663 -8.24752 2.43888
H 6.03994 0.673687 1.76784
H 8.66628 4.57578 1.76652
H 4.56785 7.35292 -4.68482
H 1.95549 3.46784 -4.72375
H 9.08165 9.02458 0.439928
H 7.27374 10.2261 -2.09174
H 9.96679 8.34541 -2.70987
H -7.26071 -17.058 -0.231302
H -6.9627 -14.5981 2.10572
H -4.18914 -16.2673 1.00231
H 4.07236 5.021 6.2308
H 5.33111 9.56787 6.39427
H 3.16794 12.7281 3.70991
H -0.341851 11.4338 0.835259
H -5.64518 2.79113 1.14914

[FR-NORM-COORD]
Vibration 1
0.00774788 0.00170075 -0.00472431
0.00736993 0.00604712 -0.00661404
0.00283459 0.00907068 -0.00831479
-0.00151178 0.00642507 -0.00680301
-0.00188973 0.00170075 -0.00472431
0.00264562 -0.000944863 -0.00472431
-0.0062361 -0.000188973 -0.00226767
0.00226767 -0.00925966 -0.00699199
0.00170075 -0.0190862 -0.00925966
0.00982658 0 -0.0020787
0.0602823 -0.0323143 -0.0241885
0.0591484 -0.0317474 -0.020409
0.00774788 0.0020787 0.00472431
-0.041385 0.034204 0.0260782
-0.0398732 0.0332592 0.0228657
0.0130391 -0.00170075 0.00548021
-0.00548021 0.00907068 -0.00831479
-0.0020787 0.0109604 -0.0122832
-0.00548021 0.0132281 -0.013984
-0.0122832 0.013606 -0.0119053
-0.0154958 0.0119053 -0.00812582
-0.0120942 0.00944863 -0.00642507
-0.0158737 0.0160627 -0.013606
-0.0430858 0.0351489 0.0302356
-0.00302356 -0.00132281 -0.00075589
-0.00604712 -0.0120942 0.000944863
0.00132281 -0.0160627 0.00736993
0.00925966 -0.00925966 0.00869274
0.00736993 -0.000188973 0.00396842
0.000944863 -0.0251334 0.0115273
0.00869274 -0.027401 0.0175745
0.0164406 -0.020598 0.0190862
0.0168186 -0.0115273 0.0145509
0.0111494 0.00736993 0.00510226
-0.0130391 -0.0160627 -0.00226767
-0.00736993 0.00359048 -0.00510226
0.0103935 0.00793685 -0.00604712
-0.00982658 -0.00359048 0.0020787
0.0999665 -0.0582036 -0.0434637
0.0971319 -0.0568808 -0.0368497
-0.0801244 0.0597153 0.0449755
-0.0782347 0.0585815 0.0394953
0.00340151 0.0103935 -0.0141729
-0.00302356 0.0145509 -0.0170075
-0.020787 0.0122832 -0.00661404
-0.0145509 0.00812582 -0.00377945
-0.0149288 0.0173855 -0.0141729
-0.0188973 0.0145509 -0.0128501
-0.0166296 0.0185193 -0.0149288
-0.0289128 0.0255113 0.0268341
-0.0805023 0.0648176 -0.00812582
-0.0574477 0.0393063 0.0890061
-0.00491329 -0.0302356 0.0102045
0.00869274 -0.034393 0.020976
0.0224877 -0.0226767 0.0236216
0.0230547 -0.00642507 0.0156847
-0.00736993 0.027401 -0.00075589
Vibration 2
0.00680301 -0.00510226 -0.00850377
0.00661404 -0.00812582 -0.0187083
0.00925966 -0.00944863 -0.0175745
0.0115273 -0.00793685 -0.0075589
0.0120942 -0.00548021 0.000377945
0.00944863 -0.00377945 0.00170075
0.013606 -0.00434637 0.00774788
0.0102045 0.000566918 0.0147399
0.0109604 0.00699199 0.0268341
0.00226767 -0.00245664 -0.00831479
0.0221098 -0.0115273 -0.0183303
0.0153068 -0.0075589 -0.0177634
-0.0111494 0.00604712 -0.00774788
-0.0304246 0.0149288 0.00170075
-0.0234326 0.0107714 0.00151178
-0.0151178 0.00850377 -0.00831479
0.0124722 -0.00850377 -0.00226767
0.0113384 -0.0124722 -0.000377945
0.0102045 -0.0119053 0.0062361
0.0103935 -0.00718096 0.0109604
0.0119053 -0.00340151 0.00888171
0.0128501 -0.00396842 0.00226767
0.00888171 -0.0062361 0.0185193
-0.0445975 0.0239995 0.00170075
0.0096376 -0.0141729 0.0119053
0.0241885 0.00661404 -0.000566918
0.00283459 0.0158737 -0.00736993
-0.0253223 0.00396842 0.0020787
-0.0243775 -0.0149288 0.0154958
0.00812582 0.034204 -0.0215429
-0.0154958 0.0406291 -0.0266451
-0.0432747 0.0292908 -0.0177634
-0.048566 0.0105825 -0.00302356
-0.0425188 -0.0292908 0.0249444
0.0478101 0.0130391 -0.00340151
0.0260782 -0.0389284 0.0238105
0.00453534 -0.00925966 -0.0268341
0.0171965 0.0020787 0.00377945
0.0427078 -0.0217318 -0.0258892
0.0302356 -0.0143619 -0.0253223
-0.0502667 0.0249444 0.00925966
-0.0381725 0.0175745 0.00888171
0.0102045 -0.0156847 -0.00340151
0.00925966 -0.0147399 0.00793685
0.0120942 0.000377945 0.0126612
0.013606 -0.00075589 0.00113384
0.00699199 -0.0107714 0.020409
0.00831479 -0.00510226 0.0222988
0.0100155 -0.00170075 0.0192752
-0.0427078 0.0238105 -0.000566918
-0.0582036 0.0389284 -0.0147399
-0.0529123 0.0202201 0.0270231
0.0302356 0.0430858 -0.0289128
-0.0117163 0.05518 -0.0377945
-0.0614161 0.034582 -0.0219208
-0.0704868 0.00151178 0.0041574
0.020976 -0.0833369 0.0228657
Vibration 3
0.00491329 0.0041574 -0.0260782
0.00510226 0.00170075 -0.0355268
0.00774788 0 -0.0376055
0.0102045 0.00151178 -0.0300466
0.0103935 0.00377945 -0.027779
0.00774788 0.00566918 -0.0268341
0.013606 0.00604712 -0.0217318
0.00793685 0.0109604 -0.0255113
0.00831479 0.0185193 -0.0239995
0.00226767 0.00604712 -0.00944863
-0.0238105 0.00472431 0.00812582
-0.0287238 0.00736993 0.0279679
-0.00718096 0.0117163 0.0304246
0.0196532 0.0124722 0.0130391
0.0241885 0.00925966 -0.00718096
-0.0160627 0.0147399 0.0514005
0.0107714 0.00132281 -0.0173855
0.0041574 -0.00548021 -0.00925966
0.00151178 -0.00359048 0.00661404
0.00548021 0.00472431 0.0143619
0.0130391 0.0109604 0.00548021
0.0156847 0.00925966 -0.0103935
0.00151178 0.0075589 0.0325033
0.00377945 0.0202201 0.0572587
0.00188973 -0.0096376 -0.0156847
-0.00113384 -0.0154958 -0.0132281
-0.00925966 -0.0153068 0.00377945
-0.0117163 -0.0102045 0.0119053
-0.00529123 -0.00699199 0.000944863
-0.0141729 -0.0194642 0.0113384
-0.0215429 -0.0179524 0.027401
-0.0236216 -0.0126612 0.0353379
-0.0187083 -0.00869274 0.02759
-0.00434637 -0.00302356 0.00264562
0.00321253 -0.0190862 -0.0239995
0.00226767 -0.0236216 -0.0247554
0.00321253 0.000566918 -0.0385504
0.020787 0.0145509 -0.0298577
-0.0406291 0.00170075 0.00604712
-0.0487549 0.00680301 0.0417629
0.0366607 0.0154958 0.0147399
0.0447865 0.0100155 -0.020976
0.000566918 -0.0115273 -0.0149288
-0.00396842 -0.00850377 0.0132281
0.0166296 0.0173855 0.0113384
0.0211649 0.0145509 -0.0166296
-0.00283459 -0.00321253 0.0368497
-0.000566918 0.00982658 0.041385
0.0041574 0.0188973 0.0340151
-0.00831479 0.0215429 0.0746442
0.0243775 0.0266451 0.0651955
0.0075589 0.0168186 0.0379835
-0.0124722 -0.0236216 0.00491329
-0.0255113 -0.020976 0.0336371
-0.0291018 -0.0115273 0.0476211
-0.020409 -0.00453534 0.0338261
0.00491329 -0.0349599 -0.0309915
Vibration 4
-0.0170075 0.00888171 -0.0164406
-0.0170075 0.00831479 -0.0245664
-0.0173855 0.00774788 -0.020598
-0.0166296 0.00869274 -0.00831479
-0.0164406 0.00907068 -0.00661404
-0.0166296 0.00869274 -0.0115273
-0.0173855 0.00888171 -0.000188973
-0.0166296 0.00736993 -0.0122832
-0.0168186 0.00491329 -0.0128501
-0.0128501 0.0062361 -0.00831479
-0.000377945 -0.013795 -0.00944863
0.013606 -0.0222988 -0.0020787
0.0151178 -0.0103935 0.0062361
-0.00075589 0.0119053 0.00944863
-0.0147399 0.0202201 0.0020787
0.0338261 -0.0232436 0.0113384
-0.0105825 0.00491329 0.0062361
0.00113384 -0.0228657 -0.00113384
0.0145509 -0.0319364 0.0111494
0.0164406 -0.0128501 0.0306136
0.00283459 0.0164406 0.0393063
-0.0107714 0.0255113 0.0270231
0.034393 -0.0249444 0.0423299
0.0425188 -0.0158737 0.0177634
-0.0109604 0.0062361 0.00283459
-0.00548021 0.00340151 -0.00340151
0.00472431 0.00113384 -0.0122832
0.000944863 0.00321253 -0.00680301
-0.0115273 0.00699199 0.00642507
0.0173855 -0.00283459 -0.0257003
0.0260782 -0.00491329 -0.0336371
0.0219208 -0.00302356 -0.027779
0.00907068 0.00113384 -0.0141729
-0.0215429 0.00982658 0.0190862
-0.0096376 0.00340151 -0.00075589
-0.00831479 0.00453534 0.00604712
-0.0173855 0.00793685 -0.0315584
-0.0222988 0.00850377 0.00566918
-0.000944863 -0.0234326 -0.0166296
0.0241885 -0.0387394 -0.00340151
-0.00170075 0.0226767 0.0170075
-0.0262672 0.0370386 0.00396842
0.000188973 -0.0379835 -0.0170075
0.0241885 -0.0544241 0.00453534
0.00340151 0.0317474 0.0548021
-0.0200311 0.047999 0.0323143
0.020787 -0.0296687 0.0491329
0.0546131 -0.0168186 0.0311805
0.0444086 -0.0396842 0.0576366
0.0600933 -0.0308025 0.0198421
0.027401 -0.0179524 0.0105825
0.0478101 0.00453534 0.027779
0.020787 -0.00453534 -0.0302356
0.0362827 -0.00831479 -0.0442196
0.0285349 -0.00472431 -0.0338261
0.00604712 0.00264562 -0.0096376
-0.0120942 0.0196532 0.0143619
Vibration 5
-0.00774788 -0.00850377 -0.0173855
-0.00774788 -0.0096376 -0.0555579
-0.00680301 -0.0102045 -0.0544241
-0.00661404 -0.00982658 -0.0258892
-0.00604712 -0.00850377 -0.00226767
-0.00680301 -0.00831479 0.0128501
-0.00548021 -0.00907068 -0.0041574
-0.00491329 -0.00907068 0.0636838
-0.00359048 -0.0130391 0.107147
-0.00774788 -0.00869274 -0.0103935
-0.00226767 -0.0171965 -0.0111494
0.00188973 -0.0198421 -0.00718096
0.000566918 -0.013606 -0.00283459
-0.0062361 -0.00396842 -0.00151178
-0.0103935 -0.00151178 -0.00529123
0.00718096 -0.0181414 -0.000188973
-0.00699199 -0.00907068 -0.0120942
-0.0128501 -0.0173855 -0.00472431
-0.0187083 -0.0132281 0.0153068
-0.0188973 -0.00151178 0.02759
-0.0107714 0.00529123 0.0179524
-0.00510226 0.00151178 -0.00170075
-0.0279679 0.00472431 0.0521564
0.00736993 -0.0132281 0.00377945
0.0156847 0.0141729 -0.013795
0.0151178 0.0132281 -0.0132281
0.00604712 0.0143619 -0.00132281
0.0188973 0.0132281 -0.013606
0.0364717 0.0113384 -0.0351489
-0.0149288 0.0175745 0.0222988
-0.0230547 0.0194642 0.034393
-0.0096376 0.0181414 0.0219208
0.0119053 0.0147399 -0.00264562
0.0633058 0.00944863 -0.0650066
0.020787 0.0109604 -0.0215429
0.0119053 0.0455424 0.00151178
-0.00888171 -0.0102045 -0.0839038
-0.0120942 -0.0126612 0.00396842
-0.00075589 -0.0221098 -0.0147399
0.00642507 -0.0268341 -0.00774788
-0.00793685 0.00132281 0.00245664
-0.0153068 0.00566918 -0.00453534
-0.013984 -0.0257003 -0.0134171
-0.0239995 -0.0187083 0.0217318
-0.0096376 0.013984 0.0266451
0 0.00699199 -0.00793685
-0.041196 -0.00491329 0.0597153
-0.0306136 0.00472431 0.0566918
-0.0194642 0.0194642 0.0606602
0.013795 -0.0187083 0.00491329
0.00075589 -0.0117163 -0.00075589
0.00850377 -0.00604712 0.0102045
-0.0253223 0.0185193 0.0319364
-0.0400622 0.0219208 0.0538572
-0.0162516 0.0196532 0.0317474
0.0221098 0.013606 -0.0124722
0.0130391 0.0262672 -0.00340151
Vibration 6
-0.0221098 0.00736993 0.00680301
-0.0219208 -0.00340151 0.00982658
-0.0115273 -0.00982658 0.00264562
-0.00283459 -0.00491329 -0.00472431
-0.0020787 0.00604712 -0.00491329
-0.0124722 0.0122832 -0.00170075
0.0109604 0.0126612 -0.0041574
-0.0120942 0.0268341 -0.00774788
-0.0113384 0.0438416 -0.0122832
-0.0255113 0.00925966 0.0105825
-0.00340151 -0.00661404 0.00132281
0.0124722 -0.0160627 -0.00264562
0.00566918 -0.00944863 0.00226767
-0.0247554 0.0115273 0.0151178
-0.0402512 0.020976 0.0192752
0.0317474 -0.0253223 -0.00642507
0.00453534 -0.00982658 -0.0115273
-0.00585815 -0.00170075 -0.00226767
-0.000377945 -0.00529123 -0.00944863
0.0151178 -0.0177634 -0.0258892
0.0249444 -0.0260782 -0.034582
0.0190862 -0.0221098 -0.0270231
0.020787 -0.0215429 -0.0349599
0.0500777 -0.0349599 -0.0128501
0.00774788 0.00585815 -0.00151178
0.00944863 0.00434637 -0.00321253
-0.0020787 0.00585815 0.0113384
-0.00699199 0.00793685 0.0179524
0.00151178 0.00718096 0.00736993
-0.00869274 0.00604712 0.0190862
-0.020598 0.00888171 0.034393
-0.0255113 0.0113384 0.041196
-0.0187083 0.0107714 0.0328812
0.00453534 0.00774788 0.00453534
0.0188973 0.00188973 -0.0145509
0.0105825 -0.00075589 -0.000944863
-0.0294797 -0.00812582 0.0173855
0.0181414 0.0257003 -0.0119053
0.00359048 -0.0130391 -0.00340151
0.0317474 -0.0300466 -0.0105825
-0.0351489 0.0200311 0.0213539
-0.061983 0.0360938 0.0283459
-0.0185193 0.00793685 0.0109604
-0.00850377 0.00132281 -0.00188973
0.0368497 -0.0353379 -0.0466762
0.0257003 -0.0287238 -0.0323143
0.0377945 -0.0257003 -0.0408181
0.0181414 -0.0185193 -0.0230547
0.00944863 -0.0228657 -0.0493218
0.0808803 -0.0540462 -0.0241885
0.0247554 -0.0559359 -0.0149288
0.0602823 -0.00359048 -0.00472431
-0.00491329 0.00434637 0.013795
-0.0262672 0.00925966 0.0410071
-0.0349599 0.013606 0.0529123
-0.0224877 0.0126612 0.0381725
0.0119053 -0.0241885 -0.00718096
Vibration 7
0.0100155 0.0102045 0.00793685
0.00982658 0.0105825 -0.0147399
0.00869274 0.0111494 -0.0177634
0.00793685 0.0109604 -0.0102045
0.00850377 0.00982658 0.000188973
0.00944863 0.0096376 0.0239995
0.00699199 0.0096376 -0.0105825
0.0109604 0.00869274 0.0740773
0.0122832 0.00453534 0.116785
0.00925966 0.0107714 0.00718096
0.0115273 0.0160627 0.00377945
0.0102045 0.0170075 -0.00226767
0.00680301 0.0130391 -0.00491329
0.0041574 0.00812582 -0.00170075
0.00566918 0.0075589 0.00453534
0.00585815 0.0145509 -0.0113384
0.0111494 0.00907068 -0.00907068
0.0113384 0.00151178 -0.00774788
0.0260782 -0.00869274 -0.0122832
0.0408181 -0.0109604 -0.0183303
0.0351489 0 -0.0141729
0.0194642 0.0102045 -0.00907068
0.0657625 -0.027779 -0.0289128
0.00264562 0.0096376 -0.0153068
-0.0285349 -0.00321253 -0.0102045
-0.0457314 -0.00944863 0.00642507
-0.0334482 -0.013984 0.0041574
-0.0222988 -0.0096376 -0.000377945
-0.0270231 -0.00188973 -0.000566918
-0.0302356 -0.0222988 0.00359048
-0.013984 -0.0266451 -0.00245664
-0.0020787 -0.0226767 -0.0075589
-0.00642507 -0.013984 -0.0062361
-0.0287238 0.00396842 0.00529123
-0.0631168 -0.0107714 0.0160627
-0.0383614 -0.0173855 -0.0393063
0.0103935 0.0109604 -0.0292908
0.020787 0.00642507 -0.0281569
0.0145509 0.0192752 0.0062361
0.0119053 0.020598 -0.00453534
0.00113384 0.00510226 -0.00396842
0.00359048 0.0041574 0.00699199
0.00226767 0.0020787 -0.00510226
0.027401 -0.0154958 -0.0126612
0.0434637 -0.000188973 -0.0162516
0.0153068 0.0185193 -0.00642507
0.0423299 -0.00925966 -0.0239995
0.0946753 -0.0251334 -0.068786
0.082581 -0.0646286 -0.00113384
0.00226767 0.0122832 -0.0200311
0.00188973 0.00661404 -0.013984
0.00170075 0.00736993 -0.0153068
-0.0394953 -0.0255113 0.0075589
-0.0105825 -0.0330702 -0.00377945
0.0109604 -0.0262672 -0.0128501
0.00283459 -0.0105825 -0.00982658
-0.0298577 -0.00850377 -0.0508336
Vibration 8
0.00396842 -0.00283459 -0.00510226
0.00396842 0.00510226 0.000188973
-0.00453534 0.00982658 0.00548021
-0.0107714 0.00661404 0.00831479
-0.0111494 -0.00132281 0.00642507
-0.00340151 -0.00680301 -0.00340151
-0.0211649 -0.00661404 0.00925966
-0.0041574 -0.0196532 -0.0151178
-0.00529123 -0.034582 -0.0253223
0.0109604 -0.00718096 -0.00850377
0.00377945 -0.00472431 -0.00434637
0.00170075 -0.00359048 -0.00151178
0.00699199 -0.00472431 -0.00245664
0.0202201 -0.0107714 -0.00907068
0.0221098 -0.0120942 -0.0120942
-0.000944863 -0.000377945 0.00340151
-0.0100155 0.00604712 0.00585815
0.0202201 -0.0160627 -0.0217318
0.0370386 -0.0279679 -0.034393
0.0236216 -0.0158737 -0.0190862
-0.0122832 0.0105825 0.013606
-0.0289128 0.0213539 0.0255113
0.0531013 -0.0357158 -0.0374166
-0.0258892 0.0177634 0.0158737
-0.00188973 0.00680301 0.00548021
0.00264562 0.00812582 0.000944863
-0.00604712 0.0100155 0.00793685
-0.00529123 0.00869274 0.00548021
0.00472431 0.00548021 -0.00472431
-0.0171965 0.013984 0.0194642
-0.0285349 0.0168186 0.0300466
-0.0279679 0.0156847 0.0281569
-0.0160627 0.0113384 0.0153068
0.0149288 0.00283459 -0.0173855
0.0102045 0.00736993 -0.00566918
-0.00132281 0.0228657 0.0187083
0.00982658 0.00869274 -0.000566918
-0.0326923 -0.0160627 0.0226767
-0.00188973 -0.00283459 -0.00302356
-0.00510226 -0.000944863 0.0020787
0.0283459 -0.0141729 -0.0117163
0.0313695 -0.0160627 -0.0168186
0.0321253 -0.0264562 -0.0355268
0.062172 -0.0466762 -0.0580146
-0.0264562 0.0211649 0.027401
-0.0536682 0.0410071 0.0466762
0.00925966 0.000188973 -0.0285349
0.0942973 -0.0368497 -0.106581
0.0837149 -0.0901399 0.0111494
-0.0427078 0.0266451 0.0249444
-0.0181414 0.0406291 0.00699199
-0.0357158 -0.00075589 0.0253223
-0.0175745 0.0151178 0.0211649
-0.0379835 0.0200311 0.0398732
-0.0368497 0.0179524 0.0362827
-0.0154958 0.0102045 0.013606
-0.00453534 0.0304246 0.0253223
Vibration 9
0.00188973 -0.000377945 0.0164406
0.00188973 -0.00151178 0.0222988
0.00264562 -0.0020787 0.0130391
0.00510226 -0.000566918 -0.000188973
0.00491329 0 -0.0020787
0.00377945 0.000566918 0.00604712
0.00283459 -0.000944863 -0.00850377
0.00377945 0.00359048 0.00453534
0.00396842 0.00699199 0.00340151
-0.00132281 0.00170075 0.0151178
0.00321253 0.00585815 0.0107714
0.000944863 0.00736993 0.00434637
-0.00548021 0.0041574 0.00226767
-0.0122832 0.00132281 0.0075589
-0.0100155 0.000188973 0.013984
-0.00548021 0.00529123 -0.00566918
0.0075589 -0.00245664 -0.00396842
0.0368497 -0.0224877 -0.0315584
0.0359048 -0.0213539 -0.0281569
0.00472431 0.00113384 0.00340151
-0.0213539 0.0194642 0.0262672
-0.0179524 0.0177634 0.020976
-0.00869274 0.0100155 0.0062361
0.00661404 -0.0103935 -0.0171965
-0.00132281 -0.00075589 -0.00944863
-0.00226767 -0.00245664 -0.00869274
-0.00264562 -0.00302356 -0.0062361
-0.00434637 -0.00132281 -0.00283459
-0.000944863 -0.000566918 -0.00793685
-0.00264562 -0.00472431 -0.00548021
-0.0062361 -0.00396842 0.00075589
-0.00982658 -0.00170075 0.0062361
-0.00869274 -0.000377945 0.0041574
0.00302356 0 -0.0117163
-0.00302356 -0.00340151 -0.0103935
-0.00245664 -0.00151178 -0.0122832
0.00113384 -0.00188973 0.0326923
0.00396842 -0.00472431 -0.0102045
0.00907068 0.00774788 0.0120942
0.00472431 0.0103935 0.000566918
-0.0190862 -0.000188973 0.00661404
-0.0149288 -0.00226767 0.0181414
0.0604712 -0.0391173 -0.0548021
0.0578256 -0.0389284 -0.0487549
-0.0432747 0.0366607 0.048377
-0.0353379 0.0323143 0.0357158
0.201634 -0.124722 -0.0449755
-0.0980768 0.0500777 0.251334
-0.151178 0.11962 -0.195776
0.0143619 -0.0120942 -0.0264562
0.00302356 -0.0264562 -0.00982658
0.0111494 -0.00340151 -0.0241885
-0.000188973 -0.00642507 -0.0096376
-0.00604712 -0.00510226 0.00113384
-0.0134171 -0.00075589 0.0122832
-0.0109604 0.00132281 0.00812582
-0.00113384 -0.00359048 -0.0145509
Vibration 10
-0.000566918 0.000377945 -0.0217318
-0.000566918 0.00321253 -0.0291018
-0.00359048 0.00491329 -0.0143619
-0.00736993 0.00283459 0.0041574
-0.00736993 0.000566918 0.00510226
-0.0041574 -0.00151178 -0.00642507
-0.00793685 0 0.0113384
-0.00434637 -0.00831479 -0.00377945
-0.00472431 -0.0166296 -0.00170075
0.00472431 -0.00302356 -0.0211649
-0.00170075 -0.00793685 -0.0149288
0.000566918 -0.0096376 -0.0062361
0.00907068 -0.00548021 -0.00377945
0.0196532 -0.00264562 -0.0113384
0.0171965 -0.00170075 -0.0202201
0.00774788 -0.0062361 0.0075589
-0.00831479 0.00359048 0.0107714
-0.0304246 0.0151178 0.0313695
-0.020409 0.00907068 0.0253223
0.0105825 -0.0105825 -0.00151178
0.0258892 -0.0190862 -0.0166296
0.0151178 -0.0113384 -0.00944863
0.0219208 -0.0181414 -0.0213539
-0.0132281 0.0179524 0.0251334
-0.00321253 0.00340151 0.0103935
-0.00453534 0.00548021 0.0117163
-0.00264562 0.00585815 0.0075589
0.000944863 0.00377945 0.0020787
-0.000566918 0.00283459 0.00510226
-0.00340151 0.00774788 0.00774788
0.000188973 0.00699199 0.00132281
0.00472431 0.00453534 -0.00510226
0.00472431 0.00302356 -0.00453534
-0.000944863 0.00151178 0.00472431
-0.00699199 0.00718096 0.0168186
-0.00434637 0.00869274 0.0122832
0.00132281 0.00453534 -0.0442196
-0.0100155 0.000944863 0.013795
-0.0096376 -0.0102045 -0.0166296
-0.00510226 -0.0130391 -0.00132281
0.0292908 -0.00132281 -0.0103935
0.0249444 0.000944863 -0.0260782
-0.0529123 0.0287238 0.0510226
-0.0364717 0.0168186 0.0410071
0.048566 -0.0311805 -0.0340151
0.0262672 -0.0190862 -0.0190862
0.210138 -0.123021 -0.0712427
-0.0400622 0.0200311 0.174989
-0.104313 0.048188 -0.195209
-0.0232436 0.0198421 0.0374166
-0.0109604 0.0425188 0.0120942
-0.020976 0.00812582 0.0391173
-0.00661404 0.00982658 0.0128501
0 0.00831479 0.00113384
0.00793685 0.00377945 -0.0103935
0.0075589 0.00113384 -0.00907068
-0.00472431 0.0143619 0.0141729
Vibration 11
0.0151178 -0.0062361 -0.0239995
0.0145509 -0.00302356 -0.0360938
0.0107714 0 -0.0222988
0.00699199 -0.00170075 0.00283459
0.00680301 -0.00604712 0.00831479
0.0113384 -0.00831479 -0.00661404
0.00132281 -0.00944863 0.0187083
0.0107714 -0.0188973 -0.0128501
0.00982658 -0.0323143 -0.0190862
0.00736993 -0.00170075 -0.0187083
0.0151178 -0.0111494 -0.020409
-0.00812582 0.00245664 -0.00396842
-0.034582 0.0243775 0.0120942
-0.041574 0.034204 0.013606
-0.0215429 0.0217318 -0.00132281
-0.0644397 0.041574 0.0311805
0.00226767 0.00151178 0.00566918
0.00585815 0.00377945 0.00113384
0.00566918 0.00396842 -0.00510226
0.00188973 0.00170075 -0.00661404
-0.00548021 0.00170075 0.000944863
-0.00510226 0.00170075 0.00718096
0.00642507 -0.00132281 -0.0177634
0.0742662 -0.0351489 -0.0190862
0.00075589 -0.00718096 0.0170075
-0.00718096 0.00188973 0.0262672
-0.0075589 0.00434637 0.0164406
0.00321253 -0.00359048 -0.0020787
0.00491329 -0.0096376 0.000944863
-0.0166296 0.013606 0.0234326
-0.0117163 0.0128501 0.00736993
0.00283459 0.00340151 -0.0154958
0.0096376 -0.00491329 -0.0200311
0.00982658 -0.0168186 -0.00907068
-0.013606 0.0075589 0.0423299
-0.00302356 -0.00132281 0.0143619
0.0171965 -0.00113384 -0.0536682
0 -0.00982658 0.0194642
0.0387394 -0.0294797 -0.034204
-0.00453534 -0.00396842 -0.00396842
-0.0657625 0.0536682 0.0279679
-0.0292908 0.0309915 0.00075589
0.0103935 0.00510226 0.00113384
0.00944863 0.00548021 -0.00925966
-0.0103935 0.000944863 0.00132281
-0.0100155 0.00075589 0.0120942
0.00793685 0.00585815 -0.0200311
0.0102045 -0.0020787 -0.0255113
0.00585815 -0.0109604 -0.0171965
0.0880612 -0.0455424 -0.0198421
0.114139 -0.114895 0.0498888
0.116407 0.00170075 -0.121509
-0.0270231 0.0211649 0.0410071
-0.0187083 0.0196532 0.0126612
0.00812582 0.00245664 -0.0294797
0.0192752 -0.0122832 -0.0366607
-0.000566918 -0.000188973 0.0111494
Vibration 12
-0.00982658 -0.00113384 -0.0153068
-0.00925966 -0.0115273 -0.0238105
0.00283459 -0.0188973 -0.0162516
0.0130391 -0.0126612 0.00132281
0.013984 -0.00245664 0.00888171
0.0020787 0.00434637 -0.00188973
0.0239995 0.0020787 0.0198421
0.00283459 0.0328812 -0.00793685
0.00491329 0.0748331 -0.0145509
-0.0126612 0.000377945 -0.013984
-0.0175745 -0.00491329 -0.00850377
-0.00472431 -0.0132281 -0.00529123
0.0113384 -0.0147399 -0.00699199
0.0132281 -0.00699199 -0.0103935
0.00132281 -0.000377945 -0.0143619
0.0311805 -0.0279679 -0.00491329
0.0158737 -0.0147399 -0.00604712
0.0334482 -0.0170075 -0.0247554
0.0219208 -0.00888171 -0.0272121
-0.0075589 0.00113384 -0.00982658
-0.0188973 -0.00113384 0.00226767
-0.00566918 -0.0096376 0.00321253
-0.0289128 0.0153068 -0.00377945
-0.0188973 0.0128501 0.0236216
0.00170075 -0.00585815 0.0190862
-0.0170075 0.00585815 0.0406291
-0.0120942 0.0075589 0.0243775
0.0020787 -0.00170075 0.00170075
0.00377945 -0.00774788 0.00472431
-0.0194642 0.0170075 0.0291018
-0.00831479 0.0147399 0.00566918
0.00982658 0.00396842 -0.0219208
0.0141729 -0.00434637 -0.0234326
0.0124722 -0.0154958 -0.0096376
-0.0362827 0.0143619 0.0712427
-0.00585815 -0.0075589 0.00302356
-0.0173855 -0.0166296 -0.0366607
0.0410071 0.020598 -0.00075589
-0.0309915 -0.00377945 -0.0075589
-0.00642507 -0.0185193 -0.00226767
0.0255113 -0.00774788 -0.0109604
0.00472431 0.0041574 -0.0179524
0.0555579 -0.0232436 -0.0370386
0.034771 -0.00907068 -0.0406291
-0.0389284 0.00434637 0.0119053
-0.013606 -0.0111494 0.0115273
-0.0508336 0.02759 0.0020787
-0.0376055 0.00396842 -0.0187083
-0.0151178 0.0262672 0.0120942
-0.0183303 0.00869274 0.0313695
-0.0389284 0.0495108 -0.00907068
-0.0332592 0.00736993 0.068975
-0.0325033 0.0257003 0.0502667
-0.0134171 0.0213539 0.00850377
0.0200311 0.00188973 -0.041574
0.0264562 -0.0128501 -0.0436527
0.00774788 -0.0640617 -0.0281569
Vibration 13
-0.00170075 0.00264562 0.0149288
-0.0020787 -0.000377945 0.00377945
-0.0020787 -0.000566918 -0.0219208
-0.000566918 -0.000188973 -0.0241885
-0.00075589 0.00359048 -0.00793685
-0.00075589 0.0041574 0.00396842
0.00510226 0.0075589 -0.00699199
-0.0020787 -0.0158737 -0.00604712
-0.00472431 -0.0582036 -0.0166296
-0.00529123 0.00453534 0.0217318
-0.00850377 0.0130391 0.020598
-0.00491329 0.0115273 0.0111494
0.00170075 0.000188973 0.00302356
-0.00302356 -0.00434637 0.00736993
-0.00566918 -0.00188973 0.0166296
0.0170075 -0.0075589 -0.0145509
0.0041574 -0.00340151 -0.0247554
0.00283459 -0.0122832 -0.0215429
0.00245664 -0.0124722 -0.00888171
0.00396842 -0.00359048 0
0.0122832 0.000944863 -0.00925966
0.0111494 0.00132281 -0.0211649
-0.00510226 0.00264562 0.0241885
-0.013606 -0.00188973 -0.0126612
0.00869274 0.00377945 -0.00264562
0.00566918 0.00604712 0.000377945
-0.0113384 0.0103935 0.0181414
0.0219208 0.00264562 -0.0188973
0.000377945 0.00510226 0.00812582
-0.0498888 0.020409 0.0597153
-0.0340151 0.0168186 0.041196
0.0272121 0.00188973 -0.0260782
0.0523454 -0.00472431 -0.0538572
-0.0472432 0.0103935 0.061983
0.0257003 0.00453534 -0.0168186
0.00831479 -0.0105825 -0.0115273
-0.00321253 -0.000944863 0.0119053
-0.00661404 0.000377945 0.00604712
-0.0128501 0.0213539 0.0266451
-0.0062361 0.0177634 0.0096376
-0.00245664 -0.0107714 0.00264562
-0.0075589 -0.00661404 0.0192752
0 -0.0181414 -0.0272121
-0.00075589 -0.0181414 -0.00434637
0.0177634 0.00548021 -0.00585815
0.0143619 0.00642507 -0.0251334
-0.0062361 -0.0149288 0.0289128
-0.0124722 0.00510226 0.0427078
-0.00453534 0.0232436 0.0213539
-0.00170075 -0.00453534 -0.0268341
-0.0381725 0.00188973 -0.0287238
-0.020787 0.000566918 0.0175745
-0.0886281 0.0306136 0.103557
-0.0657625 0.0249444 0.075967
0.0512116 -0.00396842 -0.0527234
0.0907068 -0.0143619 -0.096565
-0.00529123 0.109982 0.0308025
Vibration 14
0.00132281 0.00226767 0.00264562
0.00188973 0.0115273 0.0115273
-0.00151178 0.0143619 0.0126612
-0.00718096 0.0119053 0.00396842
-0.00604712 -0.000566918 -0.00377945
-0.00396842 -0.00245664 -0.00377945
-0.0202201 -0.00944863 0.00453534
-0.00245664 0.0270231 0.00321253
0.00113384 0.0910848 0.0103935
0.0062361 0.000188973 0.00113384
0.0100155 -0.000188973 -0.00113384
0.00850377 0.000944863 -0.00188973
0.00264562 0.00321253 0
0.0020787 0.00188973 0.00075589
0.0041574 0.000566918 0.00151178
-0.00472431 0.00793685 0.00151178
-0.0183303 0.0198421 0.0149288
-0.0230547 0.0221098 0.0196532
-0.0153068 0.0168186 0.0151178
-0.00264562 0.0109604 0.00585815
-0.0154958 0.020787 0.0171965
-0.0226767 0.0255113 0.0213539
0.0309915 -0.0119053 -0.0226767
0.00188973 0.00264562 -0.00226767
-0.00888171 -0.0194642 0.0105825
0.0100155 -0.0200311 -0.00774788
-0.0156847 -0.0151178 0.0117163
0.00359048 -0.0234326 -0.0149288
-0.00283459 -0.0239995 -0.00680301
-0.0379835 -0.0062361 0.034393
-0.0228657 -0.00982658 0.0105825
0.0179524 -0.0238105 -0.0391173
0.0283459 -0.0296687 -0.0489439
0.0122832 -0.0294797 -0.0264562
0.0572587 -0.0285349 -0.0576366
0.00718096 -0.0173855 0.0376055
0.00661404 0.0143619 0.0187083
-0.0190862 -0.0041574 0.0041574
0.0145509 -0.00132281 -0.0020787
0.0111494 0.000188973 -0.00340151
-0.000377945 0.0020787 0.000944863
0.00340151 0.000188973 0.0020787
-0.0306136 0.0255113 0.0255113
-0.0158737 0.0149288 0.0160627
-0.0160627 0.0224877 0.0188973
-0.0279679 0.0313695 0.0255113
0.0610381 -0.013984 -0.034204
0.0487549 0.000944863 -0.0187083
0.0124722 -0.0434637 -0.041385
-0.00377945 0.00642507 -0.00113384
0.0102045 -0.000188973 0.0041574
0.00283459 -0.00151178 -0.0122832
-0.0633058 0.00264562 0.0653845
-0.0396842 -0.00226767 0.0270231
0.0398732 -0.0289128 -0.0678412
0.0540462 -0.0389284 -0.0806913
0.0102045 -0.145887 0.00944863
Vibration 15
-0.00774788 -0.00245664 -0.0262672
-0.00736993 -0.00907068 0.0143619
-0.000944863 -0.013606 0.061983
0.00585815 -0.0100155 0.0430858
0.00491329 -0.00170075 0.00566918
-0.00113384 0.00113384 -0.0117163
0.00925966 0.00170075 -0.013984
0 0.00888171 0.0124722
0.00113384 0.0143619 0.0379835
-0.00396842 -0.00510226 -0.0462983
0.00132281 -0.0239995 -0.0425188
0.0020787 -0.0266451 -0.0249444
-0.00264562 -0.00718096 -0.0115273
0.00774788 0.0041574 -0.0211649
0.00472431 0.00396842 -0.0387394
-0.0239995 0.00170075 0.0253223
0.0115273 -0.0143619 0.0311805
0.0268341 -0.00529123 0.0134171
0.0192752 0.000566918 -0.00491329
-0.00472431 -0.00359048 -0.00359048
-0.0141729 -0.0171965 0.00869274
-0.00359048 -0.0234326 0.0247554
-0.0245664 0.0096376 -0.0181414
0.0234326 0.0062361 0.0334482
0.00377945 0.0126612 -0.0198421
0.00226767 0.00718096 -0.0202201
-0.00113384 0.00566918 -0.00680301
0.00831479 0.00944863 -0.0102045
-0.00396842 0.0160627 -0.000566918
-0.0119053 0.000377945 0.00812582
-0.00793685 -0.000944863 0.0156847
0.00925966 0.00132281 0.00472431
0.0171965 0.00699199 -0.00774788
-0.0387394 0.0279679 0.0444086
0.0096376 0.00170075 -0.0368497
-0.000377945 0.00850377 -0.0291018