[Molden Format]
[FREQ]
-6.4
9.7
24.7
27.6
29.9
35.4
43.2
49.7
55.9
63.8
71.6
84.5
97.5
102.4
110.5
112.3
132.4
141.0
147.5
161.1
176.2
186.0
206.1
232.1
241.2
249.9
259.0
266.3
287.2
314.0
317.7
324.5
338.0
348.8
359.0
368.0
379.4
384.0
421.1
439.0
463.2
478.7
489.5
513.2
530.4
546.7
557.0
566.2
580.1
587.9
611.2
614.4
630.1
642.7
651.9
656.8
667.8
689.4
710.9
716.2
721.5
762.9
782.2
791.5
811.7
830.8
846.6
851.5
874.9
883.7
884.1
894.7
904.1
937.9
967.4
973.3
992.8
1002.8
1007.6
1008.7
1009.6
1013.7
1017.5
1024.9
1036.2
1045.7
1074.8
1075.2
1081.9
1104.6
1127.5
1177.5
1179.7
1184.2
1188.1
1197.7
1203.8
1209.1
1239.7
1259.1
1263.1
1266.8
1267.9
1273.4
1277.3
1283.4
1285.7
1295.2
1301.7
1321.5
1330.5
1337.4
1343.0
1343.6
1349.3
1350.4
1351.9
1366.3
1370.9
1383.6
1395.4
1429.7
1500.0
1507.9
1519.1
1523.7
1529.5
1535.0
1559.1
1578.8
1602.3
1608.5
1646.5
1689.2
1694.3
1698.8
1701.4
1707.4
1708.3
1714.2
1816.4
1832.5
1842.6
2453.2
2638.0
2651.8
2653.7
2667.3
2674.1
2732.2
2734.0
2738.1
2742.7
2743.2
2745.0
2748.3
2748.7
2757.3
2757.6
2761.4
2764.5
2764.6
2768.3
2768.7
2779.7
       
[FR-COORD]
C -2.71705 -3.01071 0.250011
C -0.0810692 -3.01071 0.250011
C 1.21812 -0.699955 0.250011
N -0.00170075 1.5303 0.326545
C -2.56436 1.55128 0.330891
C -4.02625 -0.69164 0.243964
N -3.64131 3.95935 0.389095
C -6.68831 -0.585248 0.119242
N -8.87075 -0.470164 0.00188973
C -4.06083 -5.42824 0.250578
C -3.48484 -7.23028 -1.60721
C -4.67764 -9.55672 -1.60438
C -6.46759 -10.0751 0.292152
C -7.06909 -8.30289 2.15032
C -5.85607 -5.96908 2.10629
O -7.47481 -12.421 0.08277
C 3.9928 -0.588839 0.10847
C 5.44884 -1.41918 2.14371
C 8.06819 -1.29276 2.00122
C 9.23358 -0.355457 -0.17839
C 7.76205 0.452967 -2.21627
C 5.14081 0.35867 -2.06925
C 12.0442 -0.231302 -0.324088
C -9.36983 -13.1177 1.85477
C -2.2346 6.15049 0.915761
C 0.412338 5.85569 2.07208
C 2.71062 6.34494 0.561816
C 2.79547 6.60856 -2.0615
C 0.504746 6.60006 -3.698
C 4.97376 6.37688 1.93848
C 7.28017 6.67621 0.712427
C 7.35217 6.91942 -1.90919
C 5.1136 6.86632 -3.29247
O 0.261916 5.07618 -5.37325
O 0.479423 5.34944 4.28949
O -3.22841 8.17836 0.619641
H 0.976043 -4.77477 0.246231
H -5.50893 4.15872 -0.05518
H -2.10062 -6.78166 -3.07156
H -4.26454 -10.978 -3.02942
H -8.45671 -8.70313 3.60503
H -6.31357 -4.55764 3.54154
H 4.53213 -2.14692 3.83992
H 9.21015 -1.9279 3.5884
H 8.66232 1.17579 -3.91759
H 3.97995 1.04388 -3.63602
H 12.8868 0.418196 1.46
H 12.7112 1.04823 -1.81584
H 12.8499 -2.1061 -0.73208
H -9.8347 -15.0511 1.25534
H -11.026 -11.8896 1.6845
H -8.61715 -13.1211 3.7804
H 4.92141 6.13178 3.99205
H 9.02514 6.69473 1.79921
H 9.15553 7.1392 -2.87333
H 5.17388 6.99898 -5.34887
H -0.916328 8.08009 -3.36144

[FR-NORM-COORD]
Vibration 1
0.00680301 -0.000944863 0.0020787
0.00680301 -0.000566918 0.00736993
0.00661404 -0.000566918 0.0124722
0.00718096 -0.000188973 0.0113384
0.00718096 -0.000566918 0.00491329
0.00718096 -0.00075589 0.000566918
0.00396842 -0.0020787 0.00434637
0.00736993 -0.000944863 -0.00472431
0.00774788 -0.00132281 -0.00869274
0.00718096 -0.000944863 -0.00113384
0.0105825 -0.000566918 -0.000377945
0.0117163 -0.000944863 -0.00245664
0.00907068 -0.0020787 -0.00529123
0.00529123 -0.00245664 -0.0062361
0.00434637 -0.00188973 -0.0041574
0.0109604 -0.00283459 -0.00661404
0.00736993 -0.00472431 0.0202201
-0.00075589 0.00321253 0.0292908
0.000188973 -0.00793685 0.0349599
0.00907068 -0.0266451 0.0319364
0.0170075 -0.0328812 0.0236216
0.0164406 -0.0221098 0.0173855
0.00982658 -0.0410071 0.0364717
0.00831479 -0.00377945 -0.00982658
-0.00188973 0.00170075 0.00245664
0.00188973 0.0122832 -0.00396842
-0.00396842 0.000377945 -0.0164406
-0.0211649 0.027779 -0.0143619
-0.0351489 0.0874943 0.00472431
0.00680301 -0.0402512 -0.0332592
0.00113384 -0.0572587 -0.0478101
-0.0156847 -0.0355268 -0.0462983
-0.0270231 0.00736993 -0.0296687
-0.0808803 0.107714 -0.00699199
0.00944863 0.0266451 -0.000944863
-0.00925966 -0.00151178 0.00434637
0.00680301 -0.000566918 0.00850377
0.00377945 -0.00529123 0.00245664
0.0126612 0.000188973 0.00170075
0.0145509 -0.000566918 -0.0020787
0.00321253 -0.00302356 -0.00850377
0.00132281 -0.0020787 -0.00472431
-0.00774788 0.0171965 0.0315584
-0.00642507 -0.00321253 0.0417629
0.0243775 -0.0476211 0.0211649
0.0232436 -0.0292908 0.0100155
0.0117163 -0.0515895 0.0394953
0.0187083 -0.0400622 0.041385
0.000188973 -0.0442196 0.0315584
0.0103935 -0.00396842 -0.0105825
0.00812582 -0.00453534 -0.0124722
0.00529123 -0.00340151 -0.00850377
0.0192752 -0.0583925 -0.0349599
0.0096376 -0.0880612 -0.0608492
-0.0202201 -0.0508336 -0.0582036
-0.0410071 0.0264562 -0.0289128
-0.00226767 0.113384 0.0309915
Vibration 2
-0.0020787 -0.00283459 -0.00907068
-0.0020787 -0.0020787 -0.0102045
-0.00283459 -0.00170075 -0.0173855
-0.00321253 -0.00170075 -0.0226767
-0.00321253 -0.00264562 -0.0224877
-0.00264562 -0.00340151 -0.0164406
-0.00472431 -0.00302356 -0.0279679
-0.00283459 -0.00434637 -0.0164406
-0.00283459 -0.00529123 -0.0166296
-0.00113384 -0.00340151 0.00132281
-0.00245664 -0.0105825 0.00793685
-0.000188973 -0.0117163 0.0196532
0.00377945 -0.00566918 0.0249444
0.00434637 0.00170075 0.0179524
0.00188973 0.00283459 0.00604712
0.00680301 -0.00812582 0.0374166
-0.00283459 -0.00245664 -0.0192752
-0.00151178 -0.0162516 -0.0258892
-0.00151178 -0.0188973 -0.0281569
-0.00283459 -0.00812582 -0.0243775
-0.00396842 0.00604712 -0.0177634
-0.0041574 0.00888171 -0.0149288
-0.00283459 -0.0115273 -0.0266451
0.013606 -0.00434637 0.0461093
-0.00831479 -0.00245664 -0.0219208
-0.0168186 -0.00188973 -0.00226767
-0.00453534 -0.00075589 0.0173855
0.0145509 0.0245664 0.020409
0.0251334 0.0566918 0.00529123
-0.0134171 -0.0279679 0.0326923
-0.00321253 -0.0306136 0.0508336
0.0156847 -0.0062361 0.0538572
0.0241885 0.0215429 0.0383614
0.0255113 0.0746442 -0.0111494
-0.034771 -0.0062361 -0.00264562
-0.00661404 -0.00264562 -0.0294797
-0.00170075 -0.00188973 -0.00566918
-0.00226767 -0.00377945 -0.0385504
-0.00529123 -0.0153068 0.00377945
-0.00113384 -0.0173855 0.0249444
0.00680301 0.00680301 0.0217318
0.00245664 0.00869274 0.00075589
-0.000377945 -0.0251334 -0.0291018
-0.000377945 -0.0294797 -0.0332592
-0.00529123 0.0147399 -0.0145509
-0.00491329 0.0200311 -0.0096376
-0.00075589 -0.0128501 -0.0270231
-0.00226767 -0.0120942 -0.0268341
-0.00529123 -0.0122832 -0.027779
0.0192752 -0.0096376 0.0589595
0.00888171 -0.0111494 0.0423299
0.0177634 0.0100155 0.0445975
-0.0283459 -0.0472432 0.0300466
-0.0103935 -0.0523454 0.0629279
0.0234326 -0.00925966 0.0676522
0.0389284 0.041196 0.0400622
0.0334482 0.0634948 0.0103935
Vibration 3
-0.0170075 0.0183303 -0.0168186
-0.0170075 0.0147399 -0.0175745
-0.0134171 0.0126612 -0.00774788
-0.0102045 0.013795 0
-0.0103935 0.0175745 -0.000944863
-0.013795 0.0200311 -0.00812582
-0.00529123 0.0196532 0.0062361
-0.013795 0.0238105 -0.00548021
-0.013606 0.0268341 -0.00283459
-0.0149288 0.0173855 -0.020787
-0.0156847 0.0228657 -0.0264562
0.00188973 0.013984 -0.0190862
0.020409 -0.00075589 -0.00529123
0.0143619 -0.00283459 -0.00548021
-0.00377945 0.00661404 -0.0132281
0.0445975 -0.0120942 0.00661404
-0.0128501 0.00548021 -0.00321253
-0.0202201 0.0213539 0.00831479
-0.0192752 0.00793685 0.0113384
-0.0117163 -0.020409 0.00321253
-0.00491329 -0.0340151 -0.00736993
-0.00548021 -0.020976 -0.0107714
-0.0109604 -0.0370386 0.00472431
0.0861715 -0.0404401 0.0398732
0.000944863 0.0151178 0.0102045
0.00151178 0.00548021 0.00680301
0.00226767 -0.00321253 0.00491329
0.00302356 -0.0147399 0.00377945
0.00321253 -0.0185193 0.00396842
0.00226767 -0.0020787 0.00491329
0.00302356 -0.0126612 0.00377945
0.00377945 -0.0243775 0.00264562
0.00359048 -0.0251334 0.00283459
0.00566918 -0.0190862 0.00396842
0.00188973 0.00510226 0.00680301
0.00566918 0.0183303 0.0164406
-0.0194642 0.0132281 -0.0241885
-0.00548021 0.0247554 0.0100155
-0.0283459 0.0334482 -0.0351489
0.00321253 0.0171965 -0.0219208
0.0238105 -0.0119053 0.00113384
-0.00774788 0.00434637 -0.0124722
-0.0264562 0.0436527 0.0145509
-0.0249444 0.0192752 0.0198421
0.00132281 -0.0559359 -0.0132281
-0.000188973 -0.0319364 -0.0194642
-0.00642507 -0.0502667 0.00718096
-0.00321253 -0.034771 0.0102045
-0.0228657 -0.0404401 -0.00359048
0.118108 -0.0542351 0.0595264
0.0583925 -0.075967 0.0555579
0.113762 -0.0122832 0.0291018
0.00170075 0.00699199 0.00604712
0.00302356 -0.0122832 0.00359048
0.00434637 -0.0332592 0.00170075
0.00396842 -0.034582 0.00226767
0.000377945 -0.0211649 0.00340151
Vibration 4
0.00529123 -0.000566918 0.0132281
0.00548021 0.00283459 0.0119053
0.00188973 0.00472431 0.00888171
-0.00075589 0.00302356 0.00944863
-0.000944863 -0.000188973 0.00944863
0.00226767 -0.00226767 0.0128501
-0.00377945 -0.00132281 0.00264562
0.0020787 -0.00566918 0.0149288
0.00170075 -0.00850377 0.0168186
0.0075589 -0.00188973 0.0102045
0.0132281 -0.000188973 0.0103935
0.0103935 0.00132281 0.0020787
0.00113384 0.00113384 -0.00661404
-0.00188973 -0.00188973 -0.00472431
0.00132281 -0.00340151 0.00396842
-0.00396842 0.00434637 -0.0164406
0.00170075 0.00888171 0.000377945
0.00982658 0.0699199 0.0190862
0.00907068 0.0742662 0.00774788
-0.000377945 0.0185193 -0.0211649
-0.00888171 -0.0423299 -0.0393063
-0.00812582 -0.0468652 -0.0291018
-0.00113384 0.0239995 -0.0340151
-0.0222988 0.00944863 -0.0340151
-0.0062361 0.00245664 -0.00661404
-0.00944863 0.00982658 0.00264562
-0.00321253 -0.00680301 0.00680301
0.00529123 -0.0141729 0.0062361
0.00944863 -0.000566918 0.000566918
-0.00661404 -0.0181414 0.0126612
-0.00113384 -0.0383614 0.0177634
0.00736993 -0.0474321 0.0171965
0.0105825 -0.0349599 0.0117163
0.0075589 0.00491329 -0.0041574
-0.0175745 0.0253223 0.00642507
-0.00736993 0.000188973 -0.0188973
0.00793685 0.00434637 0.0128501
-0.00340151 -0.00491329 -0.000566918
0.0194642 0.000188973 0.0164406
0.0143619 0.00302356 0.00170075
-0.00718096 -0.00283459 -0.00982658
-0.00151178 -0.00566918 0.00529123
0.0168186 0.114706 0.0419519
0.0156847 0.122076 0.0219208
-0.0158737 -0.0865495 -0.061794
-0.0145509 -0.0933525 -0.0440306
0.00585815 0.0445975 -0.0449755
-0.0111494 0.0102045 -0.0506447
0.00132281 0.0215429 -0.0183303
-0.0308025 0.0151178 -0.0459203
-0.0128501 0.0211649 -0.0410071
-0.0364717 -0.00377945 -0.0285349
-0.0134171 -0.0113384 0.0132281
-0.00396842 -0.0478101 0.0222988
0.0115273 -0.0650066 0.0211649
0.0168186 -0.0419519 0.0113384
0.0145509 0.0041574 0.00075589
Vibration 5
-0.000377945 0.00661404 0.0287238
-0.000566918 0.00907068 0.0308025
-0.00170075 0.0100155 0.0238105
-0.00283459 0.0096376 0.0160627
-0.00302356 0.00718096 0.0160627
-0.00188973 0.00585815 0.0270231
-0.0062361 0.0062361 -0.00151178
-0.00226767 0.00340151 0.034393
-0.00283459 0.00113384 0.0421409
0.00434637 0.0041574 0.0185193
0.0177634 0.0126612 0.013984
0.0239995 0.0096376 -0.00132281
0.0156847 -0.0020787 -0.0122832
0.00283459 -0.0113384 -0.00774788
-0.00283459 -0.00793685 0.00793685
0.0224877 -0.00359048 -0.02759
-0.00226767 0.00434637 0.0151178
0.00396842 -0.0332592 -0.00453534
0.00396842 -0.0523454 -0.0194642
-0.0020787 -0.034204 -0.0149288
-0.00831479 0.00699199 0.00604712
-0.00812582 0.0262672 0.0215429
-0.00188973 -0.0599043 -0.0323143
0.0096376 -0.0134171 -0.0453534
-0.00982658 0.0134171 -0.0219208
-0.013795 0.0289128 -0.00944863
-0.00793685 0.013795 -0.00529123
0.00113384 0.0020787 -0.0062361
0.00661404 -0.00321253 -0.013984
-0.0119053 0.0128501 0.00132281
-0.00718096 0.00132281 0.00736993
0.00151178 -0.00812582 0.00661404
0.00548021 -0.00774788 0
0.0111494 -0.0122832 -0.00642507
-0.0222988 0.0523454 -0.00396842
-0.0115273 0.00907068 -0.0464873
0.000944863 0.00982658 0.034582
-0.00585815 0.000188973 -0.0062361
0.0236216 0.0221098 0.0222988
0.034582 0.0164406 -0.00510226
-0.00302356 -0.020976 -0.0158737
-0.0130391 -0.0151178 0.0117163
0.00907068 -0.0495108 -0.00888171
0.00907068 -0.0831479 -0.0351489
-0.0134171 0.0230547 0.0102045
-0.0128501 0.0570697 0.0377945
0.0145509 -0.0714316 -0.0359048
0.00132281 -0.0629279 -0.0336371
-0.0213539 -0.0665184 -0.041196
0.013795 -0.0100155 -0.0595264
0.0107714 -0.0124722 -0.0502667
-0.00396842 -0.0241885 -0.0400622
-0.0188973 0.0213539 0.00226767
-0.0103935 -0.000188973 0.0124722
0.00491329 -0.0160627 0.0115273
0.0122832 -0.0153068 -0.000377945
0.00699199 0 -0.0268341
Vibration 6
-0.00302356 -0.00642507 0.00491329
-0.00321253 -0.00774788 -0.00888171
-0.00264562 -0.00793685 -0.00907068
-0.0020787 -0.0075589 -0.0102045
-0.0020787 -0.00661404 0.00113384
-0.00302356 -0.00661404 0.0188973
-0.000377945 -0.00566918 -0.00661404
-0.00491329 -0.00850377 0.054991
-0.00680301 -0.0117163 0.0882502
-0.00566918 -0.00529123 0.0020787
-0.0464873 0.0196532 -0.034393
-0.0525344 0.0226767 -0.0434637
-0.0154958 0.000377945 -0.0143619
0.0266451 -0.0245664 0.0230547
0.0304246 -0.0262672 0.0306136
-0.0266451 0.00642507 -0.0287238
-0.00245664 -0.00529123 -0.00264562
-0.00888171 0 0.0041574
-0.00869274 0.0115273 0.0171965
-0.0020787 0.0175745 0.0234326
0.00453534 0.00944863 0.0154958
0.0041574 -0.0020787 0.00226767
-0.00188973 0.0336371 0.0391173
0.020787 -0.0213539 0.0109604
0.00340151 -0.00491329 -0.020787
0.00226767 -0.00377945 -0.0175745
0.00548021 -0.00188973 -0.0122832
0.0120942 0.00566918 -0.0111494
0.0170075 0.0134171 -0.0179524
0.00226767 -0.00661404 -0.00661404
0.00548021 -0.00359048 0.000188973
0.0120942 0.00377945 0.00113384
0.0154958 0.00831479 -0.00453534
0.0249444 0.0249444 -0.0294797
-0.00151178 -0.00453534 -0.0175745
0.00680301 -0.00491329 -0.0319364
-0.00434637 -0.00831479 -0.0185193
-0.00113384 -0.0062361 -0.00340151
-0.0736993 0.0364717 -0.0548021
-0.0850377 0.0417629 -0.0718096
0.054991 -0.041574 0.0453534
0.0614161 -0.0440306 0.0580146
-0.013984 -0.0041574 -0.000377945
-0.013795 0.0164406 0.0230547
0.00982658 0.0126612 0.0196532
0.00925966 -0.00774788 -0.00377945
-0.0149288 0.0340151 0.0451645
-0.00113384 0.0408181 0.0457314
0.0107714 0.0391173 0.0389284
0.00699199 -0.0130391 -0.00510226
0.0149288 -0.020598 0.0719986
0.0712427 -0.048566 -0.00888171
-0.00283459 -0.0122832 -0.00736993
0.00264562 -0.00680301 0.00491329
0.0145509 0.00604712 0.0062361
0.020598 0.0141729 -0.00396842
0.013606 0.00907068 -0.0124722
Vibration 7
0.0213539 -0.00188973 -0.0102045
0.020598 0.00245664 -0.00680301
0.0153068 0.00585815 0.00075589
0.0111494 0.00340151 0.00529123
0.0109604 -0.00188973 -0.00510226
0.0164406 -0.00491329 -0.0141729
0.000566918 -0.00661404 -0.00680301
0.0166296 -0.0143619 -0.0279679
0.0168186 -0.0243775 -0.041196
0.0181414 -0.000377945 -0.00566918
-0.0241885 0.0122832 -0.0300466
-0.0404401 0.0202201 -0.0285349
-0.0103935 0.0162516 -0.00151178
0.0366607 0.00264562 0.0268341
0.0496998 -0.00453534 0.0238105
-0.0349599 0.0272121 -0.00661404
0.0156847 0.00661404 0.00226767
0.0151178 0.00396842 0.00170075
0.0153068 -0.00831479 -0.00226767
0.0166296 -0.0175745 -0.00566918
0.0170075 -0.0107714 -0.00340151
0.0168186 0.00132281 0.00075589
0.0170075 -0.0360938 -0.0120942
-0.00075589 0.0224877 0.0281569
-0.0153068 0.00132281 0.000566918
-0.0181414 0.0181414 0.0100155
-0.0166296 0.0096376 0.0102045
-0.0154958 -0.00472431 0.00869274
-0.0156847 -0.0128501 0.00888171
-0.0173855 0.0143619 0.0111494
-0.0166296 0.0041574 0.0102045
-0.0153068 -0.0102045 0.00888171
-0.0149288 -0.0143619 0.00812582
-0.020787 -0.027401 0.0228657
-0.0224877 0.034393 0.013795
-0.0272121 -0.00472431 -0.00264562
0.0236216 0.00434637 -0.0096376
0.000944863 -0.0158737 -0.0145509
-0.0461093 0.0154958 -0.0493218
-0.075778 0.0296687 -0.048377
0.0616051 -0.00151178 0.0493218
0.0842818 -0.0124722 0.0423299
0.0141729 0.0100155 0.00377945
0.0149288 -0.0117163 -0.00321253
0.0177634 -0.0164406 -0.00529123
0.0173855 0.00529123 0.00188973
0.0253223 -0.0383614 -0.0151178
0.0222988 -0.0430858 -0.0158737
0.00377945 -0.0421409 -0.0103935
-0.0294797 0.0328812 0.0170075
0.00510226 0.0374166 0.0788016
0.0425188 -0.00491329 0.0111494
-0.0187083 0.0258892 0.0124722
-0.0168186 0.00736993 0.0105825
-0.0145509 -0.0185193 0.00831479
-0.013795 -0.0257003 0.0075589
-0.0115273 -0.00585815 -0.00359048
Vibration 8
-0.00529123 0.000377945 0.00944863
-0.00529123 -0.00453534 0.0219208
-0.00188973 -0.00661404 0.0241885
0.00075589 -0.00491329 0.0241885
0.00113384 -0.000188973 0.0119053
-0.00188973 0.0020787 0.00113384
0.00491329 0.00170075 0.00529123
-0.000566918 0.00566918 -0.0241885
0.000944863 0.00888171 -0.0476211
-0.00944863 0.00245664 0.00170075
-0.013606 0.00869274 -0.00566918
-0.0128501 0.00850377 -0.00982658
-0.00680301 0.00132281 -0.00585815
-0.00585815 -0.00302356 -0.00151178
-0.0075589 -0.00188973 0.00188973
-0.00245664 -0.000188973 -0.00812582
-0.00245664 -0.00377945 0.0149288
0.0124722 -0.02759 -0.00585815
0.0111494 -0.00642507 -0.0158737
-0.00510226 0.0374166 -0.00566918
-0.0198421 0.0534792 0.0113384
-0.0181414 0.0326923 0.0221098
-0.00699199 0.0701088 -0.0124722
0.0247554 -0.0188973 0.013606
0.00812582 0.0020787 -0.00529123
0.00585815 0.00699199 0.00151178
0.00888171 -0.0149288 -0.00113384
0.00736993 -0.0147399 -0.00113384
0.00377945 0.00132281 0.00377945
0.0109604 -0.034204 -0.0041574
0.0115273 -0.0517785 -0.00718096
0.00982658 -0.0498888 -0.00718096
0.0075589 -0.0315584 -0.00434637
-0.0215429 -0.0130391 0.020598
0.00151178 0.0298577 0.00680301
0.0120942 0.0020787 -0.0198421
-0.00850377 -0.00642507 0.0260782
0.00642507 0.00359048 -0.000377945
-0.0168186 0.013606 -0.00718096
-0.0158737 0.0128501 -0.0151178
-0.00377945 -0.00718096 -0.00075589
-0.00718096 -0.00472431 0.00491329
0.0257003 -0.0610381 -0.0130391
0.0228657 -0.0226767 -0.0308025
-0.0328812 0.0850377 0.0177634
-0.0300466 0.0472432 0.0366607
-0.0119053 0.0823921 -0.0143619
-0.0247554 0.0763449 -0.0151178
0.0149288 0.0795575 -0.0119053
0.0360938 -0.0230547 0.0179524
0.0113384 -0.034204 0.0325033
0.0462983 -0.0128501 0.00510226
0.0117163 -0.0349599 -0.0041574
0.0132281 -0.0667073 -0.0096376
0.0102045 -0.0627389 -0.00925966
0.00585815 -0.0298577 -0.0041574
0.0253223 0.0243775 -0.00718096
Vibration 9
0.00680301 0.00566918 -0.0258892
0.00699199 0.00982658 -0.0455424
0.0041574 0.0113384 -0.0377945
0.00170075 0.00982658 -0.0253223
0.00188973 0.00604712 -0.0132281
0.00396842 0.0041574 -0.00680301
-0.00396842 0.00340151 -0.0020787
0.00226767 0.00340151 0.027401
0.000566918 0.00377945 0.0593374
0.0107714 0.00396842 -0.0158737
0.0173855 -0.00850377 -0.00170075
0.0187083 -0.00925966 0.0103935
0.0113384 0.00340151 0.00680301
0.00642507 0.0147399 -0.00548021
0.00699199 0.013984 -0.0162516
0.0105825 0.00283459 0.0190862
0.00472431 0.0107714 -0.0272121
-0.0096376 -0.0134171 -0.0262672
-0.00888171 -0.013795 -0.00585815
0.00736993 0.00982658 0.0126612
0.0222988 0.0308025 0.0105825
0.020598 0.0309915 -0.00925966
0.00850377 0.0132281 0.0376055
-0.0202201 0.0291018 -0.00340151
-0.0115273 0.00585815 0.00774788
-0.0115273 0.00812582 0.00774788
-0.00982658 -0.00812582 0.00529123
-0.00888171 -0.0236216 0.00359048
-0.00907068 -0.0185193 0.00396842
-0.0096376 -0.0147399 0.00491329
-0.00774788 -0.0383614 0.00245664
-0.00661404 -0.0555579 0.000944863
-0.00718096 -0.0478101 0.00170075
-0.00680301 -0.0105825 -0.00377945
-0.0130391 0.0164406 0.0096376
-0.0185193 0.00377945 0.0179524
0.0096376 0.0113384 -0.0608492
-0.00529123 -0.000188973 0.00113384
0.0211649 -0.0175745 -0.00113384
0.0241885 -0.0187083 0.0213539
0.00302356 0.0236216 -0.00642507
0.0041574 0.0215429 -0.0243775
-0.0221098 -0.0315584 -0.0406291
-0.020409 -0.0321253 -0.00472431
0.034582 0.047999 0.0243775
0.0321253 0.047999 -0.0107714
-0.00850377 0.0109604 0.0464873
0.020409 0.0166296 0.0459203
0.0145509 0.0149288 0.041574
-0.0283459 0.0296687 0.00132281
-0.00774788 0.0421409 -0.0328812
-0.0464873 0.0338261 0.00699199
-0.0107714 -0.0020787 0.0062361
-0.00736993 -0.0440306 0.0020787
-0.00510226 -0.0754001 -0.00075589
-0.00680301 -0.0608492 0.00075589
-0.0115273 -0.0224877 0.0105825
Vibration 10
-0.00132281 -0.0041574 -0.0179524
-0.000944863 -0.00831479 -0.0298577
0.00340151 -0.0107714 -0.0190862
0.00850377 -0.00850377 -0.0096376
0.00888171 -0.00396842 -0.0102045
0.00377945 -0.00132281 -0.0020787
0.0111494 -0.00226767 -0.020598
0.00264562 0.00944863 0.0285349
0.00170075 0.0222988 0.0589595
-0.00529123 -0.0020787 -0.0170075
0.00321253 -0.0119053 -0.00510226
0.0041574 -0.0124722 0.00170075
-0.00453534 -0.00340151 -0.00396842
-0.0170075 0.00793685 -0.0190862
-0.0166296 0.0075589 -0.0249444
0.000944863 -0.00680301 0.00736993
0.00396842 -0.0130391 -0.0143619
-0.00113384 0.00321253 -0.0041574
-0.000944863 0.00869274 0.00434637
0.00434637 -0.00226767 0.00245664
0.0096376 -0.020409 -0.00869274
0.00925966 -0.0255113 -0.0171965
0.00453534 0.0062361 0.0126612
0.00377945 -0.00302356 0.0119053
0.0166296 -0.00170075 -0.0434637
0.00188973 0.00359048 -0.00793685
0.0105825 0.00529123 0.00793685
0.00944863 0.0315584 0.0107714
-0.00245664 0.0334482 0.0258892
0.0096376 -0.0120942 0.00869274
0.00850377 0.00264562 0.0102045
0.0062361 0.0366607 0.0132281
0.00642507 0.0514005 0.0115273
-0.102612 -0.0780457 0.143052
-0.0192752 0.00982658 -0.0062361
0.0332592 -0.000188973 -0.0920297
-0.00359048 -0.00982658 -0.0436527
0.0173855 0 -0.0462983
0.00982658 -0.0194642 -0.00113384
0.0124722 -0.0202201 0.0119053
-0.0264562 0.0168186 -0.0255113
-0.0247554 0.0147399 -0.034393
-0.00548021 0.0122832 -0.00264562
-0.00510226 0.0221098 0.0124722
0.013984 -0.0304246 -0.0103935
0.0122832 -0.0383614 -0.0249444
-0.00340151 0.0075589 0.0160627
0.00566918 0.00944863 0.0160627
0.0113384 0.00888171 0.0141729
0.0175745 -0.0119053 0.0296687
-0.00396842 -0.0156847 -0.00188973
0.00113384 0.0200311 0.0130391
0.00850377 -0.0355268 0.00566918
0.00944863 -0.0113384 0.00888171
0.00585815 0.0519675 0.0154958
0.00718096 0.0784236 0.0143619
0.0789905 0.133226 -0.061983
Vibration 11
0.00396842 -0.0143619 -0.0102045
0.00453534 -0.0194642 -0.013795
0.0100155 -0.0224877 0.00113384
0.0170075 -0.0181414 0.0166296
0.0177634 -0.0132281 0.013795
0.0120942 -0.0100155 0.00510226
0.0130391 -0.0153068 0.0132281
0.0120942 0.00226767 0.0126612
0.0124722 0.0160627 0.020976
-0.0075589 -0.00793685 -0.0181414
0.0041574 -0.0224877 -0.00075589
-0.0062361 -0.0173855 0.000188973
-0.0281569 0.000377945 -0.0156847
-0.047999 0.0183303 -0.0389284
-0.0366607 0.0120942 -0.0396842
-0.0313695 0.00132281 -0.00774788
0.0103935 -0.0249444 -0.00188973
0.0147399 -0.0177634 -0.0020787
0.0143619 -0.00548021 -0.00245664
0.0100155 -0.000944863 -0.00283459
0.00604712 -0.0145509 -0.00529123
0.00642507 -0.0266451 -0.00491329
0.00925966 0.020598 -0.000188973
0.0262672 -0.020598 0.0457314
-0.00453534 -0.00377945 0.00736993
-0.00321253 0.0309915 0.0100155
-0.00548021 0.0219208 0.0041574
-0.00529123 0.00321253 0.0020787
-0.00226767 -0.000377945 -0.00188973
-0.00548021 0.0360938 0.0041574
-0.00548021 0.0285349 0.00245664
-0.00472431 0.00529123 0.000377945
-0.00472431 -0.0075589 0.00075589
0.0196532 0.020787 -0.0245664
-0.000566918 0.0642507 0.0175745
-0.0247554 -0.013984 0.00151178
0.000944863 -0.0215429 -0.0266451
0.0105825 -0.0238105 0.0141729
0.0230547 -0.0383614 0.0122832
0.00491329 -0.0283459 0.0141729
-0.0719986 0.0368497 -0.0566918
-0.0500777 0.0234326 -0.0548021
0.0185193 -0.020409 -0.00113384
0.0171965 0.00170075 -0.00170075
0.00245664 -0.0143619 -0.00718096
0.00377945 -0.0357158 -0.00661404
0.00245664 0.027401 0.000566918
0.000566918 0.0258892 0.000377945
0.0243775 0.0270231 0.000566918
0.0608492 -0.0408181 0.0837149
-0.00699199 -0.0631168 0.0629279
0.0672742 0.0251334 0.0296687
-0.00529123 0.0532903 0.0062361
-0.00585815 0.0406291 0.00302356
-0.00472431 -0.00283459 -0.00113384
-0.00453534 -0.0255113 -0.000566918
-0.0196532 -0.020598 0.0134171
Vibration 12
-0.0154958 -0.00396842 -0.0177634
-0.0153068 -0.0128501 -0.0247554
-0.0075589 -0.0175745 -0.00642507
0.00226767 -0.0126612 0.0170075
0.00283459 -0.00377945 0.0141729
-0.00585815 0.000944863 -0.00302356
0.00831479 -0.00170075 0.0224877
-0.00510226 0.0117163 -0.0111494
-0.00396842 0.0217318 -0.0215429
-0.0156847 -0.00453534 -0.0160627
-0.0328812 0.00132281 -0.0272121
-0.0134171 -0.00869274 -0.00869274
0.020598 -0.0239995 0.0192752
0.034204 -0.0281569 0.02759
0.0153068 -0.0183303 0.00982658
0.0478101 -0.0383614 0.0445975
-0.0075589 -0.0253223 -0.00907068
-0.00850377 -0.0217318 -0.00718096
-0.00869274 -0.0105825 -0.00245664
-0.00907068 -0.00340151 0.000566918
-0.00831479 -0.0175745 -0.00566918
-0.00812582 -0.0285349 -0.0105825
-0.0096376 0.0236216 0.0124722
-0.0462983 0.0115273 -0.0364717
0.00718096 0.00283459 0.00566918
0.00869274 0.0294797 0.00793685
0.00793685 0.0183303 0.00321253
0.00718096 0.00736993 0.0020787
0.00661404 0.00736993 0.00302356
0.00888171 0.0260782 0.00170075
0.00850377 0.0213539 -0.000377945
0.0075589 0.00736993 -0.00170075
0.00680301 0.000377945 -0.000188973
0.00736993 0.00907068 0.00132281
0.0105825 0.0648176 0.0158737
0 -0.00188973 -0.00642507
-0.0211649 -0.0164406 -0.0419519
0.00642507 -0.000188973 0.0272121
-0.0604712 0.013606 -0.0496998
-0.0243775 -0.00491329 -0.0156847
0.062361 -0.0410071 0.0510226
0.0262672 -0.0221098 0.0168186
-0.00869274 -0.0255113 -0.00888171
-0.00869274 -0.00491329 -0.000188973
-0.00793685 -0.0177634 -0.00566918
-0.00793685 -0.0372276 -0.0141729
-0.0255113 0.0487549 0.0109604
-0.0154958 0.0173855 0.00434637
0.0120942 0.0285349 0.0334482
-0.0672742 0.0215429 -0.0527234
-0.0100155 0.0504557 -0.107714
-0.126801 -0.00283459 -0.00491329
0.0102045 0.0368497 0.00302356
0.00869274 0.0285349 -0.00113384
0.00718096 0.00226767 -0.00377945
0.00566918 -0.0100155 -0.00113384
0.00585815 0.0062361 0.00472431
Vibration 13
-0.00377945 0.00472431 0.0289128
-0.00302356 -0.00510226 0.034771
0.00661404 -0.0111494 -0.00699199
0.0149288 -0.0041574 -0.0404401
0.0158737 0.00434637 -0.0311805
0.00604712 0.00850377 -0.00188973
0.0151178 0.00529123 -0.0453534
0.00699199 0.027401 -0.00283459
0.00850377 0.0529123 -0.0041574
-0.00680301 0.00642507 0.0323143
-0.00264562 0.0179524 0.0217318
0.00132281 0.0168186 0.00642507
0.00132281 0.00283459 0.00302356
-0.00132281 -0.0100155 0.0141729
-0.00604712 -0.0062361 0.0281569
0.00566918 0.00302356 -0.0181414
0.00699199 -0.0253223 -0.0143619
0.00680301 -0.0279679 -0.0147399
0.00642507 -0.0177634 -0.00888171
0.00793685 -0.00566918 -0.00321253
0.00944863 -0.020976 -0.0100155
0.00907068 -0.0304246 -0.0153068
0.00736993 0.0313695 0.0166296
0.0111494 -0.0211649 -0.0224877
-0.00245664 0.00472431 -0.00396842
-0.00736993 -0.000566918 0.00302356
-0.00850377 0.0132281 0.00774788
-0.00907068 -0.00718096 0.00529123
-0.0117163 0.00359048 0.00850377
-0.0105825 0.0336371 0.00982658
-0.0102045 0.0202201 0.00718096
-0.00869274 -0.0190862 0.00359048
-0.00812582 -0.0304246 0.00283459
-0.0239995 0.00944863 0.00529123
-0.0103935 -0.0292908 -0.00359048
-0.0107714 0.0041574 0.0179524
-0.0105825 -0.00982658 0.0653845
0.0177634 0.00245664 -0.0604712
-0.00226767 0.0289128 0.0253223
0.00359048 0.0260782 -0.0020787
-0.000188973 -0.0222988 0.0117163
-0.0100155 -0.0143619 0.034771
0.00642507 -0.034393 -0.0177634
0.00566918 -0.0153068 -0.00718096
0.0100155 -0.0217318 -0.00982658
0.0102045 -0.0377945 -0.0192752
-0.0211649 0.109604 0.0020787
0.0020787 -0.0113384 -0.0224877
0.0417629 0.0300466 0.0922186
0.0134171 -0.0149288 -0.0440306
0.00850377 -0.0222988 -0.00396842
0.0160627 -0.0419519 -0.0243775
-0.0120942 0.0576366 0.0122832
-0.0107714 0.0374166 0.00774788
-0.00736993 -0.0389284 0.00132281
-0.00718096 -0.0561249 0.00113384
-0.00321253 0.0109604 0.013984
Vibration 14
0.000944863 0.000377945 -0.00661404
0.000566918 0.00377945 -0.00869274
-0.00245664 0.00566918 0.00151178
-0.00548021 0.00321253 0.0107714
-0.00585815 0.000377945 0.0096376
-0.00264562 -0.00113384 0.00188973
-0.00566918 0 0.0147399
-0.00283459 -0.00812582 0.0020787
-0.00340151 -0.0179524 0.0020787
0.00264562 -0.000566918 -0.00831479
0.00359048 -0.00359048 -0.00472431
0.00226767 -0.00321253 -0.00226767
0 0.000566918 -0.00321253
-0.000377945 0.00359048 -0.0062361
0.00075589 0.00245664 -0.00869274
-0.00359048 0.00188973 -0.000566918
-0.00264562 0.00850377 0.00188973
-0.0020787 0.00340151 0
-0.00264562 -0.00283459 -0.00340151
-0.00245664 -0.00510226 -0.00548021
-0.00264562 0.00434637 -0.000566918
-0.00340151 0.0115273 0.00359048
-0.00151178 -0.0122832 0.00604712
0.00472431 0.00302356 0.00907068
0.000566918 -0.000566918 0.00264562
0.00245664 -0.00151178 -0.00075589
0.00226767 -0.00321253 -0.0020787
0.0020787 0.00321253 -0.00132281
0.00226767 0.000944863 -0.00151178
0.00302356 -0.00850377 -0.00283459
0.00264562 -0.00453534 -0.00245664
0.0020787 0.00585815 -0.00151178
0.00170075 0.0096376 -0.000944863
0.00434637 -0.00113384 0
0.0041574 0.00226767 0.000188973
0.0041574 0.000377945 -0.00264562
0.00321253 0.00529123 -0.0168186
-0.00642507 0.00132281 0.0198421
0.00510226 -0.00661404 -0.0041574
0.00302356 -0.00566918 0.000377945
-0.00170075 0.00661404 -0.00661404
0.000566918 0.00453534 -0.0107714
-0.0020787 0.00340151 0
-0.000377945 -0.00604712 -0.00642507
-0.00491329 0.0062361 -0.000944863
-0.00340151 0.0187083 0.00661404
-0.0504557 0.427078 -0.129635
0.0173855 -0.362449 -0.285349
0.0311805 -0.0993996 0.474321
-0.00434637 0.00566918 0.00774788
0.00661404 0.00736993 0.0217318
0.0166296 -0.00264562 0.00434637
0.00359048 -0.0153068 -0.00359048
0.00302356 -0.00869274 -0.00302356
0.00170075 0.0103935 -0.00113384
0.00113384 0.0171965 -0.000566918
0.00075589 -0.000377945 -0.00283459
Vibration 15
-0.00132281 -0.00321253 -0.00642507
-0.0020787 0.00226767 -0.0124722
-0.0075589 0.00566918 -0.00453534
-0.0115273 0.0020787 0.00529123
-0.0122832 -0.00188973 0.0119053
-0.00699199 -0.00472431 0.00377945
-0.00585815 0.000377945 0.0247554
-0.0075589 -0.0253223 -0.000377945
-0.00907068 -0.0585815 -0.00680301
0.00188973 -0.00548021 -0.00604712
0.00340151 -0.00982658 -0.00132281
0.00113384 -0.00907068 0.000944863
-0.00340151 -0.0041574 -0.0020787
-0.00302356 -0.000944863 -0.00491329
-0.000188973 -0.00264562 -0.00680301
-0.0096376 -0.00151178 -0.00132281
-0.00812582 0.0128501 -0.00226767
-0.0111494 0.00982658 -0.00132281
-0.0111494 0.00472431 -0.000377945
-0.00888171 0.00340151 0.000188973
-0.00642507 0.0160627 0.00359048
-0.00661404 0.0202201 0.0020787
-0.00831479 -0.0160627 -0.00377945
-0.00188973 -0.000377945 0.00774788
0.013606 -0.00377945 -0.00585815
0.0145509 -0.00264562 -0.00453534
0.013606 0.0330702 0.00472431
0.0198421 -0.0175745 -0.000566918