[Molden Format]
[FREQ]
-6.6
21.6
27.8
32.2
35.8
41.7
45.8
53.1
60.1
67.9
78.9
101.5
106.0
108.7
125.3
133.2
142.6
161.4
174.3
185.1
194.4
216.3
225.7
237.5
254.2
268.7
278.7
291.4
297.1
308.3
314.1
329.6
353.8
356.9
358.3
360.7
375.0
406.0
428.5
451.9
469.7
482.1
488.0
507.4
513.8
525.1
526.4
547.6
563.8
577.5
585.6
610.0
615.5
625.0
643.7
649.8
661.7
678.0
708.5
716.6
735.3
752.7
778.9
792.0
807.1
827.5
835.7
846.7
869.9
883.8
885.0
895.3
904.2
939.6
958.9
961.4
972.5
1000.1
1006.2
1008.1
1009.9
1014.4
1017.7
1025.5
1034.5
1046.3
1071.5
1075.3
1082.6
1096.2
1118.1
1127.7
1161.5
1176.0
1180.0
1183.5
1185.0
1189.9
1202.5
1224.5
1243.4
1249.5
1262.6
1267.4
1275.7
1280.4
1283.0
1286.4
1295.1
1301.1
1309.3
1320.5
1327.3
1337.3
1339.2
1348.6
1351.8
1353.3
1366.9
1382.3
1393.8
1421.6
1429.1
1495.8
1519.9
1526.8
1528.1
1542.0
1549.7
1561.6
1571.9
1601.1
1611.9
1648.3
1688.0
1699.4
1699.7
1707.9
1708.8
1709.2
1716.3
1897.0
1912.3
2448.8
2651.3
2653.5
2666.8
2673.2
2738.0
2741.0
2743.4
2744.4
2745.3
2745.9
2746.4
2748.9
2757.8
2761.5
2764.3
2764.5
2765.5
2767.1
2769.1
2779.1
2781.2
       
[FR-COORD]
C -1.9604 -3.38544 0.527611
C 0.672365 -3.38544 0.527611
C 1.96645 -1.06713 0.527611
N 0.75967 1.1705 0.447676
C -1.80677 1.20602 0.473187
C -3.26016 -1.06788 0.594508
N -2.99484 3.51867 0.246798
C -5.91749 -0.985303 0.762504
N -8.09842 -0.897242 0.940139
C -3.31515 -5.79711 0.361883
C -2.8293 -7.36955 -1.72022
C -4.11828 -9.62664 -2.00519
C -5.90615 -10.3217 -0.165162
C -6.38009 -8.80669 1.93924
C -5.07089 -6.53505 2.18452
O -7.04225 -12.5593 -0.692585
C 4.74359 -0.966406 0.617373
C 6.04769 -2.44549 2.37614
C 8.67044 -2.33495 2.48423
C 10.0044 -0.760237 0.829968
C 8.69331 0.717718 -0.920863
C 6.06545 0.627389 -1.01705
C 12.8173 -0.678223 0.956768
C -9.04876 -13.3407 0.913494
C -2.46137 7.36275 -2.21533
C -1.78485 5.99043 0.345253
C 1.06467 6.19755 0.461471
C 2.04355 7.12975 -1.83228
C 0.0325033 7.67682 -3.6689
C 2.63352 5.75195 2.50256
C 5.22642 6.19755 2.20531
C 6.20718 7.04131 -0.0907068
C 4.61188 7.52716 -2.13993
O 0.210327 8.27492 -5.84001
O -2.71913 7.33686 2.41242
O -4.5121 8.10031 -2.75522
H 1.71719 -5.15158 0.525533
H -4.91272 3.55892 0.445219
H -1.44299 -6.79149 -3.13657
H -3.79684 -10.8521 -3.62279
H -7.75506 -9.34923 3.35937
H -5.43447 -5.32619 3.81706
H 5.01155 -3.66626 3.67419
H 9.689 -3.47445 3.85901
H 9.71659 1.95095 -2.20663
H 5.02403 1.81735 -2.34647
H 13.4843 -0.298577 2.88882
H 13.6391 0.782158 -0.267018
H 13.6448 -2.49614 0.373599
H -9.6771 -15.0985 0.00170075
H -10.5791 -11.948 0.921808
H -8.35429 -13.7241 2.82249
H 1.87158 5.03801 4.27607
H 6.48856 5.87932 3.80364
H 8.23089 7.34329 -0.294041
H 5.35057 8.22711 -3.93195
H -4.46448 7.93156 2.15202

[FR-NORM-COORD]
Vibration 1
-0.00585815 0.00340151 -0.00510226
-0.00585815 0.00529123 -0.0132281
-0.0075589 0.0062361 -0.0198421
-0.0096376 0.00510226 -0.0177634
-0.0096376 0.00340151 -0.00661404
-0.0075589 0.00245664 -0.00151178
-0.0103935 0.00359048 0.000944863
-0.00699199 0.000944863 0.00642507
-0.00661404 -0.000188973 0.0124722
-0.00396842 0.0020787 0
-0.0062361 0.000566918 0.000377945
-0.00340151 -0.00151178 0.00548021
0.00151178 -0.00245664 0.0102045
0.00359048 -0.00075589 0.00925966
0.00075589 0.00151178 0.0041574
0.00434637 -0.00510226 0.0153068
-0.00736993 0.0096376 -0.0272121
-0.00151178 0.0179524 -0.0243775
-0.00188973 0.0251334 -0.0279679
-0.00774788 0.0234326 -0.034393
-0.0134171 0.0128501 -0.0389284
-0.0134171 0.00604712 -0.0355268
-0.00793685 0.0326923 -0.0366607
0.0096376 -0.00680301 0.020787
0.0226767 -0.00925966 -0.0173855
-0.00661404 0.00245664 -0.00359048
-0.00699199 -0.00434637 0.0245664
0.0185193 -0.0162516 0.0304246
0.0387394 -0.0198421 0.0075589
-0.0285349 -0.00321253 0.041196
-0.0234326 -0.0166296 0.0634948
0.00170075 -0.0292908 0.0695419
0.0228657 -0.027779 0.0534792
0.062361 -0.0292908 0.00680301
-0.0255113 0.0147399 -0.0202201
0.0300466 -0.00736993 -0.0425188
-0.00453534 0.0062361 -0.0147399
-0.00888171 0.00510226 0.0115273
-0.0102045 0.00113384 -0.00321253
-0.00510226 -0.00283459 0.00604712
0.00718096 -0.00113384 0.0126612
0.00226767 0.00264562 0.00359048
0.00283459 0.0198421 -0.0192752
0.00283459 0.0323143 -0.0253223
-0.0181414 0.0105825 -0.0449755
-0.0177634 -0.00151178 -0.0387394
-0.00774788 0.0391173 -0.0379835
-0.013606 0.0328812 -0.0404401
-0.00245664 0.034204 -0.0336371
0.0124722 -0.0103935 0.0258892
0.00604712 -0.0107714 0.020598
0.013984 -0.00113384 0.020409
-0.0478101 0.00699199 0.0366607
-0.0394953 -0.0185193 0.075778
0.00529123 -0.041574 0.0871164
0.0425188 -0.0366607 0.0582036
-0.0185193 0.0247554 -0.0453534
Vibration 2
-0.00604712 -0.00188973 -0.0245664
-0.00604712 -0.0041574 -0.0166296
-0.0041574 -0.00529123 -0.0181414
-0.00226767 -0.00434637 -0.0253223
-0.0020787 -0.00188973 -0.0353379
-0.00453534 -0.00075589 -0.0391173
0.00132281 -0.000377945 -0.0406291
-0.00548021 0.000944863 -0.05518
-0.00661404 0.00188973 -0.0695419
-0.0062361 -0.00264562 -0.0109604
-0.00944863 -0.0153068 -0.0020787
-0.00377945 -0.020976 0.0183303
0.00548021 -0.0141729 0.0300466
0.00604712 0.00075589 0.0192752
0 0.00642507 -0.00132281
0.0141729 -0.0238105 0.0527234
-0.00434637 -0.0075589 -0.0103935
-0.0105825 -0.00869274 -0.00680301
-0.0105825 -0.0117163 -0.000188973
-0.00472431 -0.013606 0.00302356
0.00151178 -0.0119053 -0.000188973
0.00151178 -0.00888171 -0.00680301
-0.00491329 -0.0173855 0.0096376
0.0283459 -0.0232436 0.0708647
0.00321253 0.0317474 0.0100155
0.000377945 -0.00113384 -0.00680301
0.000188973 -0.00188973 -0.000377945
0.00321253 0.0266451 0.0126612
0.00548021 0.0555579 0.0188973
-0.00245664 -0.0266451 -0.00377945
-0.00170075 -0.0253223 0.00453534
0.00170075 -0.000377945 0.0151178
0.0041574 0.0268341 0.0196532
0.00812582 0.0931635 0.0294797
-0.0020787 -0.0268341 0.00888171
0.00302356 0.0349599 0.0156847
-0.00774788 -0.00510226 -0.00831479
-0.00113384 -0.00132281 -0.062361
-0.0158737 -0.020976 -0.0105825
-0.00585815 -0.0313695 0.0258892
0.0111494 0.0075589 0.0270231
0.00075589 0.0177634 -0.00944863
-0.0151178 -0.00736993 -0.00907068
-0.0154958 -0.0130391 0.00245664
0.0062361 -0.0130391 0.00245664
0.0062361 -0.00774788 -0.0096376
-0.00850377 -0.0234326 0.0120942
-0.000188973 -0.0153068 0.0153068
-0.00585815 -0.0170075 0.00661404
0.0389284 -0.0385504 0.0929745
0.0170075 -0.0357158 0.0625499
0.0400622 0.00302356 0.0719986
-0.00491329 -0.0470542 -0.0128501
-0.00377945 -0.0447865 0.00226767
0.00245664 -0.00151178 0.0202201
0.00661404 0.0476211 0.0289128
-0.00434637 -0.0304246 0.0175745
Vibration 3
-0.0153068 0.0175745 -0.00321253
-0.0154958 0.0143619 -0.00453534
-0.0120942 0.0124722 0.00396842
-0.00869274 0.0141729 0.00944863
-0.00888171 0.0170075 0.0096376
-0.0122832 0.0187083 0.00642507
-0.00642507 0.0187083 0.0130391
-0.0117163 0.0211649 0.013795
-0.0109604 0.0222988 0.020976
-0.0124722 0.0162516 -0.0107714
-0.0122832 0.0270231 -0.0188973
0.00548021 0.0168186 -0.0179524
0.0232436 -0.00434637 -0.00850377
0.0175745 -0.0109604 -0.00529123
-0.00075589 0 -0.00661404
0.0462983 -0.0170075 -0.00453534
-0.0119053 0.00188973 0.00680301
-0.020976 -0.0132281 0.00113384
-0.0200311 -0.034204 -0.0020787
-0.0100155 -0.0398732 0.00075589
-0.00113384 -0.0213539 0.0096376
-0.0020787 -0.000377945 0.0128501
-0.00888171 -0.0670853 -0.00661404
0.0784236 -0.0525344 0.0181414
0.00113384 0.00718096 -0.00377945
-0.00188973 0.0170075 0.00226767
-0.00132281 0.0117163 0.000944863
0.000377945 -0.0020787 -0.00396842
0.00132281 -0.00869274 -0.00699199
-0.0020787 0.0185193 0.00302356
-0.00132281 0.0117163 0.000566918
0.000188973 -0.000944863 -0.00340151
0.00113384 -0.00831479 -0.00585815
0.0020787 -0.0243775 -0.0111494
0.000566918 0.02759 -0.00359048
0.00359048 0.0130391 -0.00548021
-0.0177634 0.0128501 -0.0117163
-0.00529123 0.0221098 0.0213539
-0.0243775 0.0421409 -0.0247554
0.00718096 0.0238105 -0.0228657
0.027401 -0.0243775 -0.000944863
-0.00472431 -0.00566918 -0.00321253
-0.0287238 -0.00944863 -0.00151178
-0.0272121 -0.0470542 -0.00736993
0.00680301 -0.0241885 0.0134171
0.00510226 0.0130391 0.0192752
0.000377945 -0.0869274 -0.00585815
0.00132281 -0.0665184 0.00113384
-0.027779 -0.0710537 -0.0215429
0.101289 -0.0651955 0.0268341
0.0529123 -0.0805023 0.0325033
0.105258 -0.0377945 0.0113384
-0.00340151 0.0285349 0.00661404
-0.00170075 0.0168186 0.0020787
0.00075589 -0.00529123 -0.00491329
0.00245664 -0.0185193 -0.00925966
0.00283459 0.0328812 -0.00793685
Vibration 4
-0.00869274 0.00396842 -0.00793685
-0.00850377 0.0020787 -0.00642507
-0.00793685 0.00113384 -0.00661404
-0.00680301 0.00151178 -0.00434637
-0.00661404 0.00377945 -0.00113384
-0.00774788 0.00453534 -0.0062361
-0.0020787 0.00736993 0.00793685
-0.00793685 0.00604712 -0.00925966
-0.00812582 0.00718096 -0.0122832
-0.00850377 0.00396842 -0.0096376
-0.00774788 0.00529123 -0.0105825
-0.00226767 0.0020787 -0.00869274
0.00264562 -0.00302356 -0.00585815
-0.000188973 -0.00283459 -0.00661404
-0.00585815 0.000566918 -0.00850377
0.0103935 -0.0075589 -0.00264562
-0.00793685 0.00434637 -0.00491329
-0.0102045 0.0436527 0.0292908
-0.0109604 0.0570697 0.0385504
-0.0105825 0.0304246 0.013606
-0.00869274 -0.0130391 -0.0245664
-0.00793685 -0.0257003 -0.034204
-0.0117163 0.0487549 0.0270231
0.0211649 -0.0183303 0.00566918
0.00548021 0.0153068 0.0222988
0.00850377 0.00264562 0.0145509
0.0105825 -0.0126612 0.000944863
0.00510226 -0.0260782 -0.00699199
-0.00151178 -0.0164406 0.00302356
0.0175745 -0.0153068 -0.00491329
0.0188973 -0.0340151 -0.0194642
0.0134171 -0.0498888 -0.0279679
0.00642507 -0.0455424 -0.0213539
-0.0105825 -0.0311805 -0.00170075
0.0234326 -0.00340151 0.0245664
0.0117163 0.0470542 0.0423299
-0.00907068 0.00170075 -0.00491329
-0.000566918 0.0126612 0.0192752
-0.0109604 0.00869274 -0.0122832
-0.00113384 0.00283459 -0.00907068
0.0020787 -0.00566918 -0.00529123
-0.00774788 0.000377945 -0.00869274
-0.0113384 0.0651955 0.048566
-0.0122832 0.0890061 0.0661404
-0.00793685 -0.0360938 -0.0461093
-0.00680301 -0.0582036 -0.0634948
-0.0222988 0.0587705 0.0285349
-0.0153068 0.0502667 0.0262672
0.00188973 0.0521564 0.0360938
0.0292908 -0.0236216 0.0103935
0.0122832 -0.0281569 0.00907068
0.0302356 -0.0111494 0.00377945
0.0215429 -0.00377945 0.00132281
0.0247554 -0.0364717 -0.0245664
0.0145509 -0.0659514 -0.0393063
0.00226767 -0.0570697 -0.02759
0.0281569 0.013606 0.0306136
Vibration 5
-0.00283459 0.00548021 0.0181414
-0.00264562 0.00774788 0.0302356
-0.00377945 0.00812582 0.020787
-0.00434637 0.00718096 0.0124722
-0.00453534 0.00585815 0.00642507
-0.0041574 0.00529123 0.00302356
-0.0041574 0.00566918 0.00188973
-0.00548021 0.00585815 -0.0183303
-0.00699199 0.00699199 -0.0376055
0.00321253 0.00245664 0.0162516
0.0472432 -0.0170075 0.0408181
0.0566918 -0.0215429 0.0359048
0.0200311 -0.00661404 0.00566918
-0.0241885 0.0122832 -0.0177634
-0.0315584 0.0158737 -0.0119053
0.034393 -0.013606 0.00434637
-0.00340151 0.00566918 0.0119053
0.000566918 0.0200311 0.020976
0.00188973 0.00793685 0.0020787
-0.00132281 -0.0185193 -0.0257003
-0.00566918 -0.0291018 -0.0315584
-0.00680301 -0.0168186 -0.0126612
0.000377945 -0.0368497 -0.0510226
-0.0158737 0.0128501 -0.0455424
-0.00264562 0.00699199 0.00396842
-0.0041574 0.00566918 0.00377945
-0.00396842 0.00396842 0.0041574
-0.00302356 0.00075589 0.00321253
-0.00245664 0.00321253 0.00359048
-0.00453534 0.00340151 0.00434637
-0.00359048 -0.00245664 0.00302356
-0.00245664 -0.00699199 0.00188973
-0.00226767 -0.00491329 0.0020787
-0.00226767 0.00264562 0.00340151
-0.00434637 0.00510226 0.00396842
-0.00170075 0.0103935 0.00472431
-0.00113384 0.00850377 0.0444086
-0.00491329 0.00585815 -0.00529123
0.0740773 -0.027779 0.062361
0.0914627 -0.0362827 0.0540462
-0.0517785 0.0232436 -0.0402512
-0.0648176 0.0291018 -0.0289128
0.00302356 0.0398732 0.041574
0.00529123 0.0181414 0.00793685
-0.00812582 -0.047999 -0.0514005
-0.00982658 -0.0258892 -0.0183303
0.020976 -0.0359048 -0.0583925
-0.000944863 -0.0459203 -0.0629279
-0.0173855 -0.0442196 -0.0536682
-0.000566918 0.00831479 -0.0474321
-0.00812582 0.0217318 -0.100911
-0.0718096 0.0260782 -0.0226767
-0.00548021 0.00680301 0.00529123
-0.00377945 -0.00359048 0.00302356
-0.00188973 -0.0122832 0.00075589
-0.00132281 -0.00793685 0.00132281
-0.00453534 0.00453534 0.00434637
Vibration 6
-0.00113384 -0.00151178 0.0170075
-0.00113384 -0.0020787 0.0105825
-0.00132281 -0.0020787 0.0020787
-0.000566918 -0.00245664 -0.00718096
-0.00075589 -0.00170075 0.00075589
-0.000188973 -0.00113384 0.0221098
0 -0.00302356 -0.0132281
0.00188973 0.000188973 0.0542351
0.00453534 0.00132281 0.0852266
-0.00075589 -0.00132281 0.0111494
-0.00642507 0.0132281 -0.00151178
-0.00566918 0.0143619 -0.0130391
0.00113384 0.000377945 -0.0117163
0.00736993 -0.0149288 0.000566918
0.0062361 -0.0153068 0.0119053
0.000566918 0.00377945 -0.0251334
-0.00113384 -0.00302356 0.00245664
-0.00736993 0.0389284 0.0421409
-0.00736993 0.0366607 0.0432747
-0.0020787 -0.00812582 0.00472431
0.00340151 -0.0495108 -0.034582
0.00321253 -0.0462983 -0.0359048
-0.00188973 -0.0126612 0.0041574
0.00982658 -0.0126612 -0.0215429
-0.000566918 -0.00510226 -0.020598
-0.00151178 -0.00226767 -0.0190862
-0.00188973 -0.00075589 -0.0126612
0.00170075 0.0202201 -0.00245664
0.00585815 0.0423299 0.000377945
-0.00434637 -0.0219208 -0.0153068
-0.00302356 -0.0266451 -0.0096376
0.000944863 -0.00869274 -0.00132281
0.00321253 0.0164406 0.00302356
0.0122832 0.0937304 0.0147399
-0.00453534 0.00340151 -0.0236216
-0.00925966 -0.0432747 -0.0398732
-0.00075589 -0.00188973 0.0119053
-0.00132281 -0.00302356 -0.0247554
-0.0111494 0.0238105 -0.00170075
-0.0100155 0.0257003 -0.0226767
0.0126612 -0.0258892 0.00151178
0.0103935 -0.0266451 0.0213539
-0.0122832 0.0735103 0.0706758
-0.0117163 0.0695419 0.0736993
0.00774788 -0.0846597 -0.0644397
0.00736993 -0.0786126 -0.0672742
0.00075589 -0.0062361 0.00170075
0.000377945 -0.0196532 -0.00264562
-0.00661404 -0.0171965 0.0111494
0.00812582 -0.0062361 -0.0330702
0.00774788 -0.0153068 -0.00226767
0.0202201 -0.0272121 -0.0283459
-0.00718096 -0.0362827 -0.0222988
-0.00491329 -0.0449755 -0.0117163
0.0020787 -0.0143619 0.0020787
0.00585815 0.0323143 0.0102045
-0.00982658 -0.0115273 -0.0202201
Vibration 7
-0.0158737 0.000188973 0
-0.0151178 -0.00453534 -0.0113384
-0.00944863 -0.00831479 -0.0134171
-0.00566918 -0.00566918 -0.0117163
-0.00491329 0 -0.00151178
-0.0100155 0.00340151 0.0103935
0.00170075 0.00340151 -0.0020787
-0.00793685 0.013795 0.0366607
-0.00548021 0.0249444 0.0614161
-0.0147399 -0.000377945 0.000377945
0.0187083 -0.0175745 0.020409
0.0313695 -0.0247554 0.0222988
0.00793685 -0.0153068 0.00302356
-0.0296687 0.00359048 -0.0190862
-0.0398732 0.00982658 -0.0198421
0.0281569 -0.0272121 0.00982658
-0.0096376 -0.00888171 -0.013795
-0.00718096 -0.0313695 -0.034582
-0.00812582 -0.0183303 -0.0234326
-0.0111494 0.0175745 0.00812582
-0.0130391 0.034582 0.0239995
-0.0120942 0.020787 0.0130391
-0.0126612 0.0394953 0.0270231
-0.000566918 -0.0145509 -0.0198421
0.00944863 0.00377945 -0.00283459
0.0102045 -0.000377945 -0.00510226
0.0109604 -0.00699199 -0.00869274
0.00982658 0.000188973 -0.0062361
0.00888171 0.0109604 -0.00188973
0.0128501 -0.0153068 -0.0119053
0.0128501 -0.0158737 -0.0124722
0.0115273 -0.00869274 -0.0105825
0.0100155 -0.00075589 -0.00736993
0.00831479 0.0253223 0.00188973
0.0183303 0.00321253 -0.00340151
0.00869274 0.0020787 -0.0020787
-0.0190862 -0.00699199 -0.0168186
0.00226767 0.00982658 0.000566918
0.0357158 -0.0249444 0.0338261
0.0593374 -0.0381725 0.0379835
-0.0493218 0.0122832 -0.034771
-0.0672742 0.0217318 -0.034393
-0.00453534 -0.0578256 -0.0570697
-0.00661404 -0.034393 -0.0381725
-0.0154958 0.0599043 0.0462983
-0.013795 0.0353379 0.0270231
-0.0298577 0.0372276 0.0336371
-0.0162516 0.0514005 0.0389284
0.00661404 0.0489439 0.0255113
0.0217318 -0.0266451 -0.0119053
-0.00453534 -0.0187083 -0.0648176
-0.0360938 0.00888171 -0.00226767
0.013984 -0.020787 -0.013606
0.013795 -0.0215429 -0.0145509
0.0115273 -0.00907068 -0.0111494
0.00869274 0.00510226 -0.00566918
0.0181414 0.00472431 0.0020787
Vibration 8
0.0120942 0.00151178 -0.0281569
0.0119053 0.0075589 -0.0478101
0.0075589 0.0102045 -0.0423299
0.0041574 0.00850377 -0.0368497
0.00377945 0.00245664 -0.0222988
0.00925966 -0.000377945 -0.0105825
-0.00529123 -0.000944863 -0.0145509
0.0115273 -0.00340151 0.0272121
0.0141729 -0.00510226 0.062172
0.0154958 -0.000944863 -0.0153068
0.0200311 -0.0168186 -0.00226767
0.0179524 -0.0173855 0.0102045
0.0100155 -0.00075589 0.00850377
0.00812582 0.0132281 -0.00188973
0.0117163 0.0120942 -0.0132281
0.00510226 -0.00132281 0.020976
0.00718096 0.0062361 -0.0262672
-0.0149288 0.0103935 -0.00566918
-0.0154958 -0.00340151 0.0156847
0.00642507 -0.0211649 0.0162516
0.0285349 -0.0239995 -0.00264562
0.0283459 -0.00982658 -0.0239995
0.00585815 -0.0389284 0.0387394
-0.027401 0.0357158 -0.00132281
-0.0102045 0.013984 0.0062361
-0.013795 0.00283459 0.000944863
-0.0147399 0.00642507 0.00585815
-0.0120942 0.000188973 0.0041574
-0.0107714 -0.0075589 0.000188973
-0.0179524 0.0115273 0.00925966
-0.0173855 0.0103935 0.0113384
-0.0145509 0.0041574 0.0103935
-0.0117163 -0.00113384 0.00661404
-0.0109604 -0.0300466 -0.00585815
-0.0232436 -0.0132281 0.00699199
-0.00359048 0.0404401 0.0175745
0.0158737 0.00982658 -0.0606602
-0.0041574 -0.00831479 0.000566918
0.0241885 -0.0283459 -0.00283459
0.0213539 -0.0292908 0.0200311
0.00453534 0.0243775 -0.00113384
0.0115273 0.0217318 -0.020409
-0.0323143 0.0239995 -0.00680301
-0.0330702 -0.000566918 0.0309915
0.0459203 -0.0374166 -0.00151178
0.0455424 -0.0124722 -0.0394953
-0.00661404 -0.041196 0.0434637
0.0249444 -0.0455424 0.0436527
-0.00132281 -0.0449755 0.0474321
-0.0368497 0.0368497 0.00283459
-0.0103935 0.0546131 -0.0323143
-0.0583925 0.0410071 0.0111494
-0.020409 0.0166296 0.0100155
-0.0194642 0.0141729 0.013606
-0.0143619 0.00302356 0.0120942
-0.00888171 -0.00661404 0.00566918
-0.0179524 -0.000944863 -0.00170075
Vibration 9
0.0020787 -0.00132281 0.0309915
0.00170075 0.00113384 0.0419519
-0.00075589 0.00283459 0.0236216
-0.00491329 -0.000377945 -0.00548021
-0.00472431 -0.00264562 -0.0187083
-0.00151178 -0.00264562 0.00812582
-0.00529123 -0.00566918 -0.0710537
-0.00113384 -0.00774788 0.0175745
-0.000377945 -0.0143619 0.0287238
0.0062361 -0.00377945 0.0289128
-0.00302356 0.0162516 0.0113384
-0.00359048 0.0187083 -0.00377945
0.0062361 0.000944863 -0.000944863
0.020409 -0.0221098 0.0187083
0.0198421 -0.0228657 0.0334482
0.000377945 0.00869274 -0.0211649
-0.00113384 0.00680301 0.0213539
0.00812582 -0.00793685 0.0020787
0.00888171 -0.0109604 -0.0120942
0.000944863 0.00188973 -0.00642507
-0.00812582 0.020598 0.0164406
-0.00850377 0.0224877 0.0302356
0.00188973 -0.00510226 -0.0260782
-0.00245664 -0.000377945 -0.0291018
0.00491329 0.0381725 -0.00736993
-0.0096376 -0.00472431 -0.0266451
-0.00982658 -0.00869274 -0.0154958
0.00075589 -0.00850377 -0.0111494
0.00642507 0.00812582 -0.0124722
-0.0187083 -0.013606 -0.0096376
-0.0162516 -0.0232436 -0.000944863
-0.00529123 -0.0279679 0.00188973
0.00340151 -0.0194642 -0.00283459
0.0107714 0.000566918 -0.0141729
-0.0188973 -0.0394953 -0.00831479
0.020409 0.0984547 0.0164406
0.00283459 0.00170075 0.0599043
-0.0075589 -0.00831479 -0.0880612
-0.0107714 0.0306136 0.00982658
-0.0122832 0.034771 -0.0175745
0.0306136 -0.0383614 0.0224877
0.0285349 -0.0385504 0.0468652
0.0151178 -0.0183303 -0.0020787
0.0160627 -0.0239995 -0.0281569
-0.0149288 0.0328812 0.0226767
-0.0154958 0.0359048 0.0468652
0.0160627 -0.0096376 -0.0300466
-0.00283459 -0.00529123 -0.0296687
-0.0062361 -0.0062361 -0.034582
-0.0151178 0.0162516 -0.0525344
0.00642507 0.00907068 -0.00718096
-0.00132281 -0.0309915 -0.0357158
-0.02759 -0.0105825 -0.0122832
-0.0226767 -0.027779 0.00321253
-0.00321253 -0.0377945 0.00831479
0.0120942 -0.020976 0.000188973
-0.0115273 -0.0202201 -0.0130391
Vibration 10
-0.00869274 -0.0115273 0.0075589
-0.00812582 -0.0177634 0.0117163
-0.00226767 -0.020976 0.00548021
0.00396842 -0.0175745 -0.00245664
0.00472431 -0.0115273 -0.00680301
-0.00151178 -0.00736993 0.00226767
0.0117163 -0.00944863 -0.0268341
-0.00075589 0.00283459 0.0096376
0.000377945 0.0130391 0.0183303
-0.0151178 -0.00812582 0.00321253
-0.00774788 -0.0100155 0.00604712
-0.00869274 -0.00869274 0.000566918
-0.0173855 -0.0075589 -0.00718096
-0.0287238 -0.00359048 -0.0124722
-0.027779 -0.00453534 -0.00736993
-0.013606 -0.00831479 -0.0113384
-0.0020787 -0.0202201 0.000188973
0.00453534 0.00170075 0.0132281
0.00434637 0.013795 0.00982658
-0.00340151 0.00264562 -0.00699199
-0.0105825 -0.0215429 -0.0222988
-0.0100155 -0.0323143 -0.0185193
-0.00377945 0.0179524 -0.00944863
0.013984 -0.0355268 0.0096376
0.0124722 0.00661404 0.000944863
0.0130391 -0.0111494 -0.00831479
0.0124722 0.00170075 -0.00491329
0.0096376 0.0221098 0.00188973
0.0096376 -0.0062361 -0.00661404
0.0117163 0.0134171 -0.00188973
0.00566918 0.0593374 0.0126612
0.0020787 0.0910848 0.0228657
0.00396842 0.0685971 0.0160627
0.00793685 -0.0419519 -0.0164406
0.0105825 -0.0272121 0.00170075
0.0181414 0.034582 0.0179524
-0.0120942 -0.0200311 0.0185193
0.0103935 -0.00566918 -0.034393
-0.000188973 -0.0126612 0.0124722
-0.00170075 -0.00982658 0.00283459
-0.0385504 0.000377945 -0.020409
-0.0366607 -0.00264562 -0.0105825
0.0102045 0.0103935 0.0258892
0.0100155 0.0321253 0.020598
-0.0164406 -0.0311805 -0.0362827
-0.0156847 -0.0500777 -0.0294797
-0.00377945 0.0255113 -0.0109604
-0.0128501 0.0200311 -0.0132281
0.00510226 0.0211649 -0.00661404
0.0302356 -0.0455424 0.0177634
-0.00548021 -0.0570697 0.0226767
0.0376055 -0.0236216 0.00340151
0.0154958 -0.00793685 -0.00888171
0.00359048 0.0727545 0.0168186
-0.00283459 0.133037 0.0353379
0.000944863 0.0874943 0.0221098
0.0130391 -0.0202201 0.00264562
Vibration 11
-0.0147399 0.00264562 -0.00188973
-0.0149288 -0.000566918 -0.00491329
-0.0126612 -0.0020787 -0.00604712
-0.0102045 -0.00113384 -0.0020787
-0.0100155 0.0020787 0.0020787
-0.0130391 0.00340151 -0.00188973
-0.00151178 0.00699199 0.0120942
-0.013606 0.00188973 -0.00812582
-0.0143619 -0.00321253 -0.0154958
-0.00812582 -0.0020787 0.00226767
-0.0292908 0.0158737 -0.0162516
-0.0107714 0.00434637 -0.00699199
0.02759 -0.0236216 0.0194642
0.0504557 -0.0421409 0.0377945
0.0319364 -0.0298577 0.0291018
0.048188 -0.0381725 0.0332592
-0.0130391 -0.00453534 -0.00736993
-0.0158737 -0.00226767 -0.00359048
-0.0162516 -0.000566918 0.000566918
-0.0149288 -0.00132281 0.00075589
-0.0124722 -0.00604712 -0.00510226
-0.0120942 -0.00736993 -0.00925966
-0.0154958 0.00377945 0.00888171
-0.048566 0.0315584 -0.0532903
0.0100155 -0.00132281 0.00075589
0.0115273 0.00151178 0.0020787
0.0128501 -0.00113384 -0.00226767
0.0096376 0.00774788 0
0.00869274 -0.000188973 -0.000944863
0.0158737 0.000377945 -0.0041574
0.0132281 0.0173855 -0.00170075
0.00925966 0.0321253 0.0020787
0.00736993 0.0255113 0.00226767
0.0075589 -0.00604712 -0.00264562
0.0221098 0.0119053 0.000566918
0.00944863 -0.00245664 0.00151178
-0.0170075 -0.00188973 -0.00661404
-0.000188973 0.0154958 0.0192752
-0.0604712 0.0389284 -0.0374166
-0.0268341 0.0171965 -0.0200311
0.0840928 -0.0676522 0.0604712
0.0493218 -0.0432747 0.0425188
-0.0175745 -0.000944863 -0.00377945
-0.0175745 0.00226767 0.00377945
-0.0107714 -0.00793685 -0.00566918
-0.0107714 -0.0105825 -0.0128501
-0.0224877 0.0160627 0.00888171
-0.013984 -0.00170075 0.00340151
-0.0103935 0.00188973 0.0219208
-0.0723765 0.0546131 -0.0812582
-0.00075589 0.0844708 -0.113762
-0.140218 0.00548021 -0.0251334
0.0198421 -0.00944863 -0.0062361
0.0145509 0.020598 -0.00188973
0.00718096 0.0487549 0.00472431
0.00340151 0.034582 0.0041574
0.0226767 0.0151178 0.00491329
Vibration 12
-0.00151178 0.00491329 0.0349599
-0.00170075 -0.000188973 0.0251334
0.00434637 -0.00359048 -0.0181414
0.00925966 -0.00075589 -0.0321253
0.00907068 0.00396842 -0.00453534
0.00396842 0.00736993 0.013606
0.00359048 0.00245664 0.00604712
0.00283459 0.0153068 -0.00831479
0.000944863 0.0255113 -0.0362827
-0.00113384 0.00472431 0.0402512
0.00718096 0.0168186 0.0323143
0.00907068 0.0192752 0.013606
0.00283459 0.00831479 0.00377945
0.000377945 -0.00869274 0.0153068
-0.00245664 -0.00774788 0.0330702
-0.00113384 0.0177634 -0.0262672
0.00566918 -0.0202201 -0.0362827
-0.00132281 -0.0304246 -0.0387394
-0.00264562 -0.027779 -0.0217318
0.00510226 -0.013606 -0.0020787
0.0147399 -0.0245664 -0.0183303
0.0147399 -0.02759 -0.0355268
0.00170075 0.0239995 0.0529123
0.0164406 -0.0170075 -0.0221098
-0.00793685 0.00245664 0.0020787
-0.0062361 0.00680301 0.00359048
-0.0075589 0.0102045 0.00548021
-0.00736993 0.0041574 0.00302356
-0.00774788 0.00132281 0.00226767
-0.00869274 0.00982658 0.00585815
-0.0075589 0.00132281 0.00340151
-0.00680301 -0.00642507 0.00113384
-0.00642507 -0.0041574 0.00113384
-0.00831479 -0.00245664 0.00113384
-0.0141729 0.00472431 0.00151178
-0.00869274 -0.000566918 0.00113384
-0.00642507 -0.00321253 0.0434637
0.00434637 -0.00264562 0.0183303
0.0117163 0.0260782 0.0404401
0.0132281 0.0296687 0.00661404
-0.000944863 -0.020598 0.00925966
-0.00718096 -0.0179524 0.0391173
-0.00699199 -0.0364717 -0.0487549
-0.0096376 -0.0315584 -0.0194642
0.0213539 -0.0255113 -0.013795
0.0224877 -0.0313695 -0.0445975
-0.0504557 0.157414 0.0453534
0.0134171 -0.0447865 -0.020976
0.0387394 -0.00283459 0.190862
0.0109604 -0.00075589 -0.0496998
0.0134171 -0.020787 0.0202201
0.0368497 -0.0517785 -0.0364717
-0.00982658 0.0156847 0.0075589
-0.00736993 0.000188973 0.00302356
-0.00585815 -0.0141729 -0.00132281
-0.00491329 -0.00982658 -0.000566918
-0.0130391 0.00548021 -0.00529123
Vibration 13
0.000566918 -0.00188973 -0.0175745
0.00075589 -0.00264562 -0.00944863
0.000944863 -0.00264562 0.0168186
0.00151178 -0.00188973 0.0264562
0.00170075 -0.00132281 0.0062361
0.00113384 -0.00170075 -0.00566918
0.00226767 -0.0020787 -0.00718096
0.00188973 0.00132281 0.0041574
0.00321253 0.00661404 0.0179524
-0.00283459 0.000188973 -0.0243775
-0.00888171 -0.00434637 -0.0219208
-0.0075589 -0.00699199 -0.0111494
-0.000377945 -0.00453534 -0.00340151
-0.00075589 0.00491329 -0.0103935
-0.00170075 0.00585815 -0.020598
0.00812582 -0.0141729 0.0170075
0.000944863 0.00113384 0.020787
0.00907068 0.00226767 0.0154958
0.00982658 0.00226767 0.00151178
0.00245664 -0.000944863 -0.00812582
-0.00642507 0.00377945 0.00321253
-0.00699199 0.00529123 0.0183303
0.00283459 -0.000377945 -0.0173855
-0.00529123 0.00699199 0.0109604
0.000188973 0.00170075 -0.000944863
-0.000566918 -0.00075589 -0.00170075
-0.000944863 0.00113384 -0.000566918
0 -0.00245664 -0.00151178
0.000377945 0.00132281 -0.00075589
-0.0020787 0.00472431 0.00113384
-0.00170075 0.00226767 0.000944863
-0.000188973 -0.00453534 -0.000944863
0.000566918 -0.00642507 -0.0020787
0.000944863 0.00566918 0.000566918
-0.00359048 -0.00434637 -0.000944863
0.00075589 0.00377945 -0.000377945
0.00075589 -0.00245664 -0.020409
0.000944863 -0.00283459 -0.0187083
-0.013795 -0.00718096 -0.027779
-0.0103935 -0.0117163 -0.00831479
0.00132281 0.0096376 -0.0062361
0 0.0111494 -0.0238105
0.0153068 0.00226767 0.0200311
0.0173855 0.00359048 -0.00283459
-0.013795 0.00604712 -0.000566918
-0.013606 0.00869274 0.0264562
-0.0130391 0.380024 -0.0857936
0.0217318 -0.248121 -0.300088
-0.000566918 -0.119053 0.350355
-0.00566918 0.000944863 0.0230547
-0.000944863 0.0119053 -0.0115273
-0.0188973 0.0219208 0.0188973
-0.00321253 0.00869274 0.00226767
-0.00245664 0.00529123 0.0020787
0.000188973 -0.00774788 -0.00151178
0.00151178 -0.0102045 -0.00321253
-0.00491329 -0.00793685 -0.000377945
Vibration 14
0.00075589 -0.0020787 -0.00585815
0.00151178 -0.013606 0.00529123
0.0122832 -0.0198421 0.020598
0.0226767 -0.0119053 0.0260782
0.0234326 -0.0020787 0.00548021
0.0130391 0.00302356 -0.00151178
0.0166296 -0.00699199 -0.0192752
0.013984 0.0321253 -0.000377945
0.0162516 0.0771008 0.00340151
-0.0130391 0.0062361 -0.0171965
-0.027401 0.0122832 -0.0249444
-0.0211649 0.00718096 -0.0158737
-0.000188973 -0.00340151 0.000377945
-0.00226767 0.00226767 -0.0041574
-0.00774788 0.0062361 -0.0122832
0.0304246 -0.0262672 0.0294797
0.013795 -0.0281569 0.0128501
0.027401 -0.0219208 0.00736993
0.0279679 -0.00718096 -0.000188973
0.0153068 0.000944863 -0.00245664
0.00226767 -0.0158737 -0.00718096
0.00302356 -0.0302356 0.000944863
0.0145509 0.0323143 -0.00321253
-0.0115273 0.00699199 -0.00661404
-0.0109604 0.00340151 -0.00170075
-0.0100155 0.0041574 -0.00132281
-0.013606 0.0173855 0.0062361
-0.0103935 -0.00226767 -0.000377945
-0.00982658 0.00188973 -0.000377945
-0.0188973 0.0281569 0.0119053
-0.0158737 0.00888171 0.00812582
-0.0105825 -0.0226767 -0.000944863
-0.0075589 -0.0257003 -0.00472431
-0.0096376 0.00566918 0.00075589
-0.034204 -0.0147399 -0.00075589
-0.0119053 -0.00113384 -0.00396842
-0.00661404 -0.0183303 0.00113384
0.0130391 -0.0183303 -0.0389284
-0.041196 0.0185193 -0.0355268
-0.0287238 0.00907068 -0.0187083
0.00472431 0 0.00170075
-0.00510226 0.0075589 -0.0126612
0.0381725 -0.0272121 0.0107714
0.0376055 -0.000566918 -0.00188973
-0.00793685 -0.0156847 -0.0151178
-0.0062361 -0.0402512 -0.00075589
0.0154958 -0.0442196 0.0113384
-0.0075589 0.096754 0.0587705
0.0359048 0.0682191 -0.0856046
0.013984 -0.0134171 0.0153068
-0.0120942 0.00680301 -0.0776677
-0.0629279 0.048566 0.020409
-0.0239995 0.048377 0.0179524
-0.0179524 0.0156847 0.0111494
-0.00793685 -0.0436527 -0.00566918
-0.00226767 -0.0459203 -0.0103935
-0.0374166 -0.0270231 -0.00982658
Vibration 15
-0.00245664 -0.00604712 -0.00264562
-0.00340151 -0.00566918 -0.00907068
-0.00453534 -0.00472431 0.00434637
-0.00170075 -0.00283459 0.0236216
-0.00245664 -0.00132281 0.0166296
-0.00113384 -0.00340151 0.00699199
0.00359048 0.00264562 0.0117163
-0.00226767 -0.034204 0.00453534
-0.00491329 -0.0935414 0.00188973
-0.00188973 -0.00774788 -0.00283459
0.000566918 -0.0132281 0.00170075
-0.000377945 -0.0132281 0.00283459
-0.00604712 -0.00925966 -0.00113384
-0.00642507 -0.0062361 -0.00340151
-0.0041574 -0.00736993 -0.0041574
-0.0117163 -0.00604712 -0.00321253
-0.00434637 -0.0128501 -0.00491329
-0.00359048 -0.0149288 -0.00736993
-0.00377945 -0.0119053 -0.00699199
-0.0062361 -0.00661404 -0.00396842
-0.00661404 -0.0171965 -0.0126612
-0.00642507 -0.0194642 -0.0126612
-0.00774788 0.0158737 0.0128501
-0.00604712 -0.00888171 0.00264562
0.0119053 0.00718096 -0.00321253
0.00529123 0.0041574 -0.00132281