[Molden Format]
[FREQ]
9.7
15.0
23.0
27.8
29.8
30.9
33.7
45.8
47.4
77.6
80.5
93.9
97.7
108.3
114.2
131.7
145.4
160.9
173.0
181.6
203.9
217.8
219.3
225.6
257.1
263.6
276.5
279.9
294.2
302.4
315.2
317.9
331.7
350.1
356.6
365.8
384.3
404.3
419.7
457.8
469.8
489.7
512.3
520.6
529.8
540.5
541.8
562.0
574.0
598.3
615.3
616.9
631.5
640.8
650.9
683.9
689.2
707.7
718.6
738.1
755.1
784.8
808.8
825.9
842.2
844.3
848.3
877.5
881.0
883.0
895.6
900.9
904.6
942.2
947.7
970.6
976.4
992.1
1005.5
1009.2
1009.6
1016.3
1017.1
1031.6
1036.1
1041.6
1048.2
1071.1
1079.8
1081.1
1089.1
1126.3
1146.2
1158.5
1177.9
1180.1
1182.7
1184.8
1196.8
1224.3
1234.5
1248.0
1262.5
1269.5
1279.1
1283.2
1287.1
1293.2
1301.2
1307.4
1310.6
1317.5
1323.7
1330.4
1336.0
1339.4
1348.4
1354.7
1363.4
1377.4
1392.3
1404.0
1425.4
1483.4
1507.1
1522.8
1530.3
1531.0
1546.2
1553.5
1599.5
1602.3
1612.8
1647.7
1653.7
1687.2
1698.6
1699.9
1708.4
1710.5
1722.3
1725.9
1902.6
2448.9
2651.4
2654.4
2668.1
2673.1
2741.3
2743.2
2745.0
2745.4
2747.5
2749.8
2750.0
2755.5
2756.0
2761.4
2763.8
2765.3
2766.2
2767.1
2770.0
2779.6
2793.7
       
[FR-COORD]
C -1.31544 -3.21877 -0.595453
C 1.31884 -3.21877 -0.595453
C 2.61217 -0.902911 -0.595453
N 1.36363 1.32224 -0.620019
C -1.1773 1.33906 -0.644208
C -2.61803 -0.89762 -0.618885
N -4.67462 3.98203 -2.04128
C -5.30011 -0.872864 -0.6272
N -7.48804 -0.929745 -0.618129
C -2.67774 -5.62817 -0.569941
C -2.28392 -7.37371 -2.52316
C -3.56478 -9.65555 -2.5311
C -5.24871 -10.1845 -0.544997
C -5.6516 -8.47523 1.42221
C -4.3545 -6.18715 1.38819
O -6.36668 -12.4803 -0.778756
C 5.38666 -0.772331 -0.583736
C 6.78563 -2.44568 0.907824
C 9.40951 -2.32417 0.906502
C 10.6586 -0.533092 -0.583736
C 9.25739 1.14612 -2.06094
C 6.62973 1.03595 -2.05319
C 13.4737 -0.43596 -0.577878
C -8.20481 -13.1485 1.06278
C -2.34421 3.96351 -0.594697
C -2.74823 4.6491 2.26219
C -0.884203 6.61385 2.92152
C 0.502478 7.36653 0.781024
C -0.397787 5.99062 -1.49137
C -0.400433 7.64715 5.2712
C 1.52142 9.45883 5.46452
C 2.90621 10.1845 3.34841
C 2.4077 9.13815 0.964894
O 1.16672 5.49665 -3.52963
O -4.30272 3.69687 3.59067
O -0.921052 7.31324 -3.70802
H 2.35951 -4.99228 -0.596964
H -4.42404 4.59336 -3.83104
H -0.976232 -6.92055 -4.05252
H -3.3023 -11.0303 -4.03457
H -6.95438 -8.8853 2.95043
H -4.6612 -4.81956 2.90394
H 5.823 -3.83123 2.08871
H 10.4967 -3.62336 2.07019
H 10.2145 2.55 -3.21688
H 5.52877 2.36726 -3.18419
H 14.2226 -0.197287 1.34681
H 14.2306 1.12344 -1.71852
H 14.2878 -2.19284 -1.33679
H -8.82974 -15.0139 0.398354
H -9.78387 -11.8114 1.05125
H -7.34782 -13.2991 2.93833
H -1.47852 7.06002 6.92585
H 1.93773 10.2979 7.29699
H 4.40514 11.5838 3.53908
H 3.49694 9.69921 -0.688805
H -6.11553 4.89023 -1.19298

[FR-NORM-COORD]
Vibration 1
0.00510226 0.00264562 -0.00434637
0.00510226 0.00075589 -0.00472431
0.00680301 -0.000188973 -0.0120942
0.00850377 0.000944863 -0.0158737
0.00869274 0.00245664 -0.0154958
0.00699199 0.00340151 -0.0117163
0.0219208 0.00510226 -0.041196
0.00699199 0.0062361 -0.0162516
0.00699199 0.00944863 -0.0213539
0.00302356 0.00396842 0.00510226
0.00302356 -0.00566918 0.013606
0.00113384 -0.00453534 0.0234326
-0.000944863 0.0062361 0.0245664
-0.000944863 0.0158737 0.0162516
0.000944863 0.0145509 0.00642507
-0.00264562 0.00604712 0.034771
0.00680301 -0.00264562 -0.0162516
0.00736993 0.00170075 -0.0119053
0.0075589 -0.00151178 -0.0171965
0.00718096 -0.00925966 -0.0268341
0.00661404 -0.0134171 -0.0311805
0.00642507 -0.0102045 -0.0258892
0.00718096 -0.0130391 -0.0326923
-0.00340151 0.0156847 0.0374166
0.00793685 0.00226767 -0.0185193
-0.0202201 -0.00793685 -0.0200311
-0.0270231 -0.0102045 0.00548021
-0.00661404 -0.00188973 0.0215429
0.0149288 0.00699199 0.0075589
-0.0496998 -0.0190862 0.013984
-0.0517785 -0.0196532 0.0394953
-0.0315584 -0.0113384 0.0555579
-0.00850377 -0.00226767 0.0466762
0.0332592 0.0175745 0.0190862
-0.0325033 -0.0134171 -0.0383614
0.0334482 0.0168186 0.00907068
0.00396842 0 0.000377945
0.0402512 0.00793685 -0.0377945
0.00472431 -0.013984 0.0124722
0.00113384 -0.0119053 0.0302356
-0.00264562 0.0241885 0.0170075
0.000944863 0.0219208 -0.000188973
0.00774788 0.00774788 -0.00453534
0.00812582 0.00188973 -0.013795
0.0062361 -0.0194642 -0.0387394
0.00604712 -0.0132281 -0.0291018
0.0113384 -0.00699199 -0.0349599
0.00718096 -0.0181414 -0.0398732
0.00340151 -0.0168186 -0.027779
-0.00396842 0.0126612 0.0461093
-0.00283459 0.0162516 0.0304246
-0.0041574 0.0243775 0.0383614
-0.0655735 -0.0257003 0.00132281
-0.0693529 -0.0268341 0.0466762
-0.0334482 -0.0119053 0.0752111
0.00736993 0.0041574 0.0593374
0.0145509 0.00548021 -0.0542351
Vibration 2
0.00529123 -0.00472431 0.00359048
0.00510226 -0.00793685 0
0.00812582 -0.0096376 0.00340151
0.0113384 -0.00774788 0.00907068
0.0113384 -0.00472431 0.0117163
0.00831479 -0.00302356 0.0105825
0.00812582 -0.00472431 0.0211649
0.00812582 -0.000566918 0.0170075
0.00812582 -0.000566918 0.0224877
0.00226767 -0.00302356 -0.00132281
-0.00340151 0.00302356 -0.00793685
-0.00736993 0.00510226 -0.013984
-0.00529123 0.00113384 -0.0134171
0.00075589 -0.00510226 -0.00661404
0.00453534 -0.00718096 -0.000566918
-0.0102045 0.0041574 -0.0200311
0.00850377 -0.0151178 -0.00113384
0.00736993 -0.020598 -0.00642507
0.00774788 -0.0281569 -0.0128501
0.00925966 -0.0304246 -0.0141729
0.0102045 -0.0243775 -0.00850377
0.0100155 -0.0168186 -0.00188973
0.00944863 -0.0389284 -0.0217318
-0.00925966 0.00132281 -0.0202201
0.0126612 -0.00510226 0.0149288
0.013795 -0.00491329 0.0149288
-0.0128501 0.0243775 0.00396842
-0.0170075 0.0262672 0.0020787
0.00661404 -0.00132281 0.0096376
-0.0326923 0.0487549 -0.00264562
-0.0580146 0.0765339 -0.0113384
-0.0625499 0.0793685 -0.0134171
-0.0417629 0.0538572 -0.00642507
0.0232436 -0.00982658 0.0245664
0.0360938 -0.0272121 0.0247554
0.0122832 -0.0257003 -0.0062361
0.00302356 -0.00925966 -0.00548021
0.0145509 -0.0544241 0.00472431
-0.00491329 0.00604712 -0.00831479
-0.0119053 0.00982658 -0.0190862
0.00245664 -0.00831479 -0.00604712
0.00907068 -0.0119053 0.00453534
0.00642507 -0.0192752 -0.00548021
0.00699199 -0.0325033 -0.0168186
0.0113384 -0.0257003 -0.00907068
0.0109604 -0.0120942 0.00264562
0.0153068 -0.041196 -0.0236216
0.0111494 -0.041196 -0.0236216
0.00226767 -0.041385 -0.0238105
-0.0143619 0.00510226 -0.0264562
-0.0062361 0.00491329 -0.0130391
-0.00699199 -0.00793685 -0.0219208
-0.0289128 0.0464873 -0.000944863
-0.0740773 0.0961871 -0.0166296
-0.0823921 0.101667 -0.0202201
-0.0453534 0.0561249 -0.00793685
0.02759 0.0453534 0.000188973
Vibration 3
-0.000566918 -0.00377945 -0.0105825
-0.000377945 -0.00585815 -0.0158737
0.00226767 -0.00718096 -0.00850377
0.00188973 -0.00661404 -0.00245664
0.00245664 -0.00453534 -0.00453534
0.000566918 -0.00321253 -0.00661404
0.00585815 -0.00132281 -0.00718096
0.00075589 -0.00170075 -0.00453534
0.000566918 -0.000188973 -0.00321253
-0.00321253 -0.00226767 -0.00529123
-0.0166296 -0.00302356 -0.00718096
-0.0202201 -0.00132281 0.00075589
-0.00944863 0.00151178 0.0103935
0.00396842 0.00245664 0.0124722
0.00699199 0.000566918 0.00434637
-0.0141729 0.00302356 0.0175745
0.00188973 -0.00359048 -0.00510226
0.00850377 -0.0638727 -0.0782347
0.00812582 -0.055369 -0.0729434
0.00264562 0.0151178 0.00718096
-0.00283459 0.0746442 0.0805023
-0.00226767 0.0638727 0.0736993
0.00226767 0.027401 0.0164406
-0.00359048 0.00566918 0.0292908
0.00434637 -0.00359048 -0.00472431
0.00132281 -0.00377945 -0.00529123
-0.00113384 -0.0020787 -0.00359048
0.0020787 -0.00245664 -0.00170075
0.00680301 -0.00472431 -0.00226767
-0.00604712 0.000188973 -0.00359048
-0.00774788 0.00188973 -0.00151178
-0.00472431 0.00151178 0.000377945
0.000188973 -0.00075589 0.000188973
0.0117163 -0.00736993 0.0020787
0.00132281 -0.00529123 -0.0062361
0.0126612 -0.00699199 -0.00491329
-0.00340151 -0.0075589 -0.0243775
0.0102045 -0.0100155 -0.0096376
-0.0247554 -0.00529123 -0.0145509
-0.0308025 -0.00188973 -0.000566918
0.0120942 0.00472431 0.0198421
0.0173855 0.00151178 0.00566918
0.0145509 -0.118864 -0.137761
0.0122832 -0.103368 -0.130391
-0.00774788 0.129635 0.143241
-0.0062361 0.108848 0.129446
-0.00699199 0.0102045 0.0222988
-0.000944863 0.0434637 0.0362827
0.0141729 0.0398732 0.00075589
-0.0100155 0.0062361 0.0336371
-0.0020787 0.0075589 0.0383614
0.00774788 0.00529123 0.0239995
-0.00831479 0.000377945 -0.00491329
-0.0117163 0.00359048 -0.00151178
-0.00642507 0.00283459 0.00188973
0.00245664 -0.000944863 0.00170075
0.00869274 0.00812582 -0.0128501
Vibration 4
-0.0166296 0.0124722 -0.0215429
-0.0168186 0.00736993 -0.020598
-0.0120942 0.00472431 -0.0107714
-0.00736993 0.00736993 -0.00604712
-0.0075589 0.0120942 -0.00850377
-0.0122832 0.0147399 -0.0156847
-0.00510226 0.0224877 0.0041574
-0.0120942 0.0185193 -0.0151178
-0.0120942 0.0202201 -0.0147399
-0.0156847 0.0117163 -0.0217318
-0.0224877 0.0162516 -0.0270231
-0.00472431 0.0062361 -0.0151178
0.020598 -0.00812582 0.00264562
0.020598 -0.00850377 0.00283459
0.00170075 0.0020787 -0.00982658
0.0444086 -0.0213539 0.0183303
-0.0117163 -0.00548021 -0.00170075
-0.0251334 -0.0145509 0.000944863
-0.0245664 -0.0292908 0.00831479
-0.0105825 -0.034771 0.0132281
0.00264562 -0.0249444 0.0119053
0.00188973 -0.0100155 0.00453534
-0.0100155 -0.0532903 0.0179524
0.0861715 -0.047999 0.0502667
-0.00245664 0.0141729 -0.000188973
0.00302356 0.00774788 0.0020787
0.00321253 0.00736993 0.00283459
0.000944863 0.0105825 0.00245664
-0.000944863 0.0134171 0.00151178
0.00529123 0.00434637 0.00377945
0.00472431 0.00491329 0.00434637
0.00245664 0.00812582 0.00396842
0.000566918 0.0109604 0.00302356
-0.00188973 0.0145509 0.000377945
0.00661404 0.00377945 0.00340151
-0.000566918 0.0162516 0.00321253
-0.0202201 0.00529123 -0.0260782
-0.00548021 0.0183303 0.00264562
-0.0400622 0.0264562 -0.0389284
-0.00831479 0.00850377 -0.0177634
0.0355268 -0.0171965 0.0132281
0.00245664 0.00151178 -0.00907068
-0.0360938 -0.0103935 -0.00302356
-0.0349599 -0.0366607 0.00982658
0.013606 -0.0289128 0.0162516
0.0122832 -0.00264562 0.00359048
-0.00736993 -0.11773 0.0247554
0.000566918 -0.0234326 0.0655735
-0.0228657 -0.0359048 -0.0364717
0.107336 -0.0604712 0.0653845
0.0633058 -0.0750221 0.0721875
0.118864 -0.0283459 0.0368497
0.00699199 0.00188973 0.00396842
0.0062361 0.00264562 0.00491329
0.00188973 0.00869274 0.0041574
-0.00132281 0.013606 0.00264562
0.00113384 0.0313695 0.00510226
Vibration 5
-0.00774788 0.00396842 0.00226767
-0.00736993 0.0041574 0.0105825
-0.00604712 0.00321253 0.00982658
-0.00529123 0.00359048 0.0096376
-0.00529123 0.00434637 0.00321253
-0.00661404 0.00472431 -0.00604712
-0.00661404 0.0105825 0.0151178
-0.00642507 0.0075589 -0.0258892
-0.00661404 0.00907068 -0.0440306
-0.00340151 0.00188973 0.00245664
0.0561249 -0.0289128 0.041385
0.0678412 -0.0353379 0.0445975
0.0170075 -0.0111494 0.00812582
-0.0447865 0.0200311 -0.0317474
-0.0536682 0.0249444 -0.0336371
0.0362827 -0.0211649 0.0168186
-0.00585815 0.000566918 0.00585815
-0.00340151 -0.0132281 -0.0119053
-0.00321253 -0.0198421 -0.0224877
-0.00510226 -0.0122832 -0.0151178
-0.00736993 0.00321253 0.00472431
-0.0075589 0.00925966 0.0151178
-0.00472431 -0.0215429 -0.0291018
-0.0117163 0.00075589 -0.0230547
-0.00245664 0.00548021 0.00831479
0.00548021 0.00321253 0.0102045
0.00566918 0.00453534 0.00585815
0.000566918 0.00548021 0.00283459
-0.00283459 0.00434637 0.00491329
0.0100155 0.00510226 0.00472431
0.00888171 0.00680301 0.000377945
0.00359048 0.00793685 -0.00264562
-0.000566918 0.00718096 -0.00132281
-0.00548021 0.00245664 0.00340151
0.0105825 0.00075589 0.0143619
-0.00510226 0.00302356 0.00472431
-0.00774788 0.00377945 0.0171965
-0.00925966 0.00302356 0.0122832
0.0941084 -0.0478101 0.0682191
0.115651 -0.0589595 0.0746442
-0.0848487 0.0394953 -0.0604712
-0.0997775 0.0470542 -0.0625499
-0.00151178 -0.0192752 -0.0173855
-0.00132281 -0.0313695 -0.0370386
-0.00888171 0.00982658 0.0117163
-0.00907068 0.020598 0.0296687
0.00718096 -0.0508336 -0.0302356
-0.00604712 -0.00831479 -0.0119053
-0.0151178 -0.013795 -0.0582036
0.0181414 -0.0147399 -0.00718096
-0.0190862 -0.00850377 -0.0916517
-0.0636838 0.0394953 0.00396842
0.0141729 0.00434637 0.00718096
0.0120942 0.00736993 -0.000566918
0.00264562 0.00925966 -0.00604712
-0.00472431 0.00793685 -0.00377945
-0.000188973 0.0200311 0.0158737
Vibration 6
-0.00472431 0.00453534 0.0309915
-0.00472431 0.00434637 0.0298577
-0.00396842 0.00396842 0.0257003
-0.00396842 0.00396842 0.020787
-0.00396842 0.00434637 0.0213539
-0.00434637 0.00453534 0.0330702
0.0107714 -0.00529123 -0.0289128
-0.0041574 0.00699199 0.0447865
-0.00434637 0.0122832 0.0570697
-0.00170075 0.00264562 0.0183303
0.00680301 0.0158737 0.00793685
0.0143619 0.0119053 -0.00869274
0.0130391 -0.00585815 -0.0143619
0.00340151 -0.0187083 -0.00529123
-0.00396842 -0.013984 0.0111494
0.0222988 -0.00869274 -0.0304246
-0.00396842 0.00188973 0.0156847
0.0020787 -0.00982658 -0.00302356
0.00245664 -0.0175745 -0.0211649
-0.00302356 -0.0130391 -0.0202201
-0.00888171 0.000944863 0.00113384
-0.00907068 0.00812582 0.0190862
-0.00264562 -0.0243775 -0.0442196
0.0224877 -0.0279679 -0.0372276
-0.00359048 0.00566918 -0.00566918
-0.027401 0.0308025 -0.0156847
-0.0147399 0.0166296 -0.0100155
0.0062361 -0.00396842 -0.00377945
0.00850377 -0.00472431 -0.0041574
-0.0213539 0.0215429 -0.0107714
-0.00548021 0.0041574 -0.00491329
0.0158737 -0.0173855 0.00170075
0.0219208 -0.0213539 0.00226767
0.0132281 -0.0162516 0.00226767
-0.05518 0.0595264 -0.0272121
0.0224877 -0.00661404 -0.00869274
-0.00529123 0.00396842 0.0292908
0.020598 0.0166296 -0.0198421
0.00793685 0.0294797 0.0128501
0.0213539 0.0219208 -0.0166296
0.00170075 -0.0321253 -0.0102045
-0.0115273 -0.0241885 0.0187083
0.00680301 -0.013795 -0.00377945
0.00699199 -0.02759 -0.0366607
-0.0132281 0.00566918 0.00321253
-0.0132281 0.0179524 0.034582
0.0175745 -0.0695419 -0.0464873
-0.00699199 -0.00302356 -0.0177634
-0.0177634 -0.0117163 -0.0905179
0.0315584 -0.0266451 -0.0496998
0.0168186 -0.034771 -0.0311805
0.020598 -0.0360938 -0.0370386
-0.0381725 0.0381725 -0.0158737
-0.0100155 0.00736993 -0.00529123
0.0281569 -0.0309915 0.00661404
0.0383614 -0.0379835 0.0075589
-0.00944863 -0.034204 -0.0321253
Vibration 7
-0.0062361 0.00245664 -0.000377945
-0.0062361 0.000566918 -0.000944863
-0.0041574 -0.000566918 0.000566918
-0.00264562 0.000377945 0.00264562
-0.00245664 0.00245664 0.00264562
-0.00453534 0.00359048 0.00170075
0.00113384 0.00585815 0
-0.00434637 0.00604712 0.00283459
-0.00453534 0.00850377 0.00377945
-0.00585815 0.00226767 -0.00264562
0 0.0020787 -0.00151178
0.00585815 -0.00113384 -0.00132281
0.00566918 -0.00434637 -0.00226767
-0.00226767 -0.00302356 -0.00491329
-0.00793685 0.000188973 -0.00510226
0.013984 -0.00850377 -0.000377945
-0.0041574 -0.00283459 -0.00113384
-0.00377945 -0.00850377 -0.00736993
-0.00396842 -0.0111494 -0.0105825
-0.00377945 -0.00869274 -0.00793685
-0.00396842 -0.00245664 -0.000377945
-0.0041574 0.000188973 0.00283459
-0.0041574 -0.00075589 0.00642507
0.0187083 -0.0153068 0.00170075
0.000188973 0.00377945 0.00151178
-0.000944863 0.00585815 0.00075589
0.000566918 0.00434637 0.000944863
0.00302356 0.00151178 0.00151178
0.00340151 0.00113384 0.00170075
-0.000377945 0.00566918 0.000566918
0.00132281 0.00377945 0.000944863
0.00396842 0.00075589 0.00151178
0.00491329 -0.000377945 0.00188973
0.00453534 -0.0020787 0.00340151
-0.00302356 0.00850377 0.000188973
0.00680301 0.000188973 0.000377945
-0.0075589 -0.000188973 -0.00264562
0.00321253 0.00472431 -0.000188973
0.000377945 0.0041574 -0.000377945
0.0109604 -0.00170075 0
-0.00377945 -0.00472431 -0.00661404
-0.013795 0.00075589 -0.00680301
-0.00377945 -0.0107714 -0.0102045
-0.00321253 -0.0143619 -0.0147399
-0.00434637 0.00113384 0.00340151
-0.0041574 0.00472431 0.00812582
-0.048377 0.470731 -0.0330702
0.00925966 -0.271932 -0.35508
0.0257003 -0.1765 0.449566
0.027779 -0.0194642 0.00491329
0.0119053 -0.0234326 0.00075589
0.020598 -0.00831479 0.00151178
-0.00245664 0.00793685 0.000188973
0.000566918 0.00491329 0.000566918
0.00529123 -0.000566918 0.00188973
0.00680301 -0.00264562 0.00245664
0.00170075 0.00812582 -0.00151178
Vibration 8
-0.0149288 -0.00302356 -0.0126612
-0.013795 -0.0103935 -0.0362827
-0.00680301 -0.0149288 -0.0383614
-0.000377945 -0.0109604 -0.0306136
0.000188973 -0.00302356 -0.00907068
-0.00736993 0.00132281 0.00925966
0.0117163 0.0122832 -0.00680301
-0.00718096 0.0170075 0.05518
-0.0075589 0.034582 0.0978878
-0.0166296 -0.0020787 -0.0102045
0.0075589 -0.0162516 0.00661404
0.0164406 -0.020976 0.0113384
-0.00132281 -0.0122832 -0.00132281
-0.0296687 0.00321253 -0.020598
-0.0362827 0.00718096 -0.0243775
0.0132281 -0.0200311 0.0075589
-0.00699199 -0.0151178 -0.0362827
-0.0100155 -0.00283459 -0.0196532
-0.0109604 0.0173855 0.00718096
-0.00925966 0.0241885 0.0170075
-0.0062361 0.00377945 -0.00907068
-0.00529123 -0.0158737 -0.0357158
-0.0102045 0.0544241 0.0557469
0.00321253 -0.0170075 -0.00132281
0.0105825 0.00113384 -0.00453534
0.00944863 -0.00283459 -0.00396842
0.00529123 0.000188973 -0.00132281
0.0111494 -0.00113384 0.00226767
0.0185193 -0.00340151 0.00075589
-0.00340151 0.00396842 -0.00113384
-0.0062361 0.00642507 0.00283459
0.000188973 0.00472431 0.0062361
0.00907068 0.000944863 0.0062361
0.0272121 -0.00869274 0.00869274
0.0143619 -0.0100155 -0.00359048
0.0308025 -0.00585815 -0.00359048
-0.0185193 -0.0130391 -0.0493218
0.0215429 -0.00925966 -0.0128501
0.020976 -0.0236216 0.0156847
0.0372276 -0.0319364 0.0251334
-0.0455424 0.0117163 -0.0317474
-0.0565028 0.0168186 -0.0368497
-0.0120942 -0.00661404 -0.0257003
-0.0132281 0.0292908 0.0226767
-0.00453534 0.00510226 -0.0062361
-0.00377945 -0.0292908 -0.0531013
-0.0368497 0.0243775 0.0695419
-0.0124722 0.0848487 0.0959981
0.0175745 0.0776677 0.0313695
0.0238105 -0.0283459 0.0115273
-0.00736993 -0.0294797 -0.027779
-0.0117163 0.00812582 0.00736993
-0.00812582 0.00491329 -0.00377945
-0.0132281 0.0096376 0.00283459
-0.0020787 0.00661404 0.00925966
0.013795 -0.000188973 0.00888171
0.0230547 0.041385 -0.0185193
Vibration 9
0.0132281 0.00604712 -0.00321253
0.0128501 0.0117163 -0.0179524
0.00944863 0.013984 -0.020787
0.00680301 0.0128501 -0.0262672
0.00642507 0.00661404 -0.0130391
0.0100155 0.0041574 0.00642507
-0.0100155 -0.0153068 -0.0103935
0.00982658 0.00151178 0.0410071
0.0100155 0.00075589 0.0746442
0.0177634 0.00377945 0.00359048
0.0243775 -0.00188973 0.00982658
0.0221098 -0.00075589 0.0107714
0.0124722 0.00680301 0.00453534
0.0103935 0.0100155 0.00132281
0.013606 0.00793685 0.00132281
0.0062361 0.0102045 0.00302356
0.00982658 0.0062361 -0.00812582
-0.00774788 -0.0113384 -0.0102045
-0.00718096 -0.0319364 0.00075589
0.0122832 -0.0340151 0.0143619
0.0304246 -0.013795 0.020409
0.0291018 0.0062361 0.00888171
0.0130391 -0.0587705 0.0247554
-0.0228657 0.0302356 -0.0185193
-0.00850377 0.000188973 -0.0122832
-0.00850377 -0.00736993 -0.0103935
-0.00812582 -0.00925966 -0.00604712
-0.0181414 0.00491329 -0.00774788
-0.0258892 0.0160627 -0.0115273
0.000566918 -0.0232436 -0.00188973
-0.000944863 -0.0219208 0.000566918
-0.0117163 -0.00680301 -0.00113384
-0.020409 0.00718096 -0.00548021
-0.0404401 0.041574 -0.0285349
-0.00869274 -0.0109604 -0.0132281
-0.0519675 0.0313695 0.00340151
0.0158737 0.0134171 -0.0241885
-0.0190862 0.00321253 -0.00529123
0.0300466 -0.00680301 0.0132281
0.0266451 -0.00472431 0.0151178
0.00585815 0.013984 -0.00132281
0.0120942 0.0102045 -0.000944863
-0.0224877 -0.00982658 -0.020409
-0.0217318 -0.0466762 -0.0020787
0.0455424 -0.013795 0.0328812
0.0434637 0.0211649 0.0124722
0.0062361 -0.0438416 0.0257003
0.0317474 -0.0782347 0.0109604
0.00151178 -0.0742662 0.048188
-0.0321253 0.0349599 -0.0232436
-0.0103935 0.0447865 -0.0398732
-0.0470542 0.0253223 -0.00793685
0.00831479 -0.034582 -0.000944863
0.0062361 -0.0326923 0.00396842
-0.0130391 -0.00548021 0.00075589
-0.0287238 0.0190862 -0.00680301
-0.020598 -0.0406291 -0.00075589
Vibration 10
-0.000188973 0.000377945 0.0326923
0.000377945 -0.00377945 0.0472432
0.00510226 -0.00642507 0.020787
0.00850377 -0.0041574 -0.00982658
0.00925966 -0.000944863 -0.0105825
0.00453534 0.00226767 0.00888171
0.00642507 -0.00548021 -0.0156847
0.00434637 0.00944863 0.00793685
0.0041574 0.0158737 0.00982658
-0.00888171 0.00529123 0.0243775
0.00359048 0.00925966 0.0230547
-0.00642507 0.0153068 0.0020787
-0.027401 0.0149288 -0.0154958
-0.0445975 0.0130391 -0.0173855
-0.0351489 0.00850377 0.00245664
-0.0328812 0.0202201 -0.0374166
0.00529123 -0.00529123 0.0166296
0.0145509 -0.00340151 0.00982658
0.0145509 0.00188973 -0.000188973
0.00585815 0.00566918 -0.00302356
-0.00321253 0.00510226 0.00491329
-0.00264562 -0.00075589 0.0145509
0.00566918 0.0109604 -0.0160627
0.0500777 -0.0438416 0.0217318
0.00736993 -0.00226767 -0.0173855
0.0111494 -0.0185193 -0.0124722
0.00566918 -0.0151178 -0.00831479
-0.00566918 0.0041574 -0.00888171
-0.00226767 0.00793685 -0.0126612
0.0115273 -0.0304246 -0.00283459
0.00283459 -0.0217318 0.00113384
-0.0126612 0.00264562 -0.000566918
-0.0168186 0.0156847 -0.00548021
-0.00340151 0.0238105 -0.0171965
0.0253223 -0.0393063 -0.0111494
-0.0128501 0.013795 -0.00699199
-0.00340151 -0.00604712 0.0736993
0.0113384 -0.0328812 -0.0247554
0.0222988 0.00774788 0.0385504
0.00340151 0.0187083 0.000566918
-0.0665184 0.0164406 -0.0351489
-0.0489439 0.00699199 0.00113384
0.0222988 -0.00642507 0.0124722
0.0213539 0.00264562 -0.00585815
-0.0105825 0.00888171 0.00340151
-0.00925966 -0.00151178 0.0196532
0.013984 0.0145509 -0.0196532
-0.00264562 0.0111494 -0.0213539
0.00566918 0.0117163 -0.0177634
0.0752111 -0.0542351 0.0270231
0.0154958 -0.0842818 0.0873053
0.118297 -0.0381725 -0.00907068
0.0224877 -0.048377 -0.0020787
0.00793685 -0.0336371 0.00548021
-0.0211649 0.0115273 0.00188973
-0.02759 0.0336371 -0.00642507
0.0160627 0.0221098 -0.0289128
Vibration 11
0.0166296 -0.00793685 -0.0260782
0.0164406 -0.00283459 -0.034393
0.0113384 0.000566918 -0.00453534
0.00812582 -0.00113384 0.0238105
0.0075589 -0.00566918 0.020598
0.0132281 -0.00907068 0.000188973
-0.000188973 -0.0266451 0.0119053
0.0132281 -0.0122832 0.00434637
0.0130391 -0.0132281 0.00944863
0.0105825 -0.00434637 -0.0302356
0.0156847 -0.0224877 -0.0122832
-0.00151178 -0.013606 -0.00548021
-0.0224877 0.0134171 -0.0162516
-0.0309915 0.0338261 -0.0355268
-0.013606 0.0228657 -0.0421409
-0.0396842 0.020976 -0.00661404
0.0119053 0.00226767 -0.0020787
0.0102045 0.00396842 0.00151178
0.0102045 0.00245664 0.00340151
0.0124722 -0.00132281 0.000566918
0.0143619 -0.00283459 -0.00264562
0.013984 -0.000566918 -0.00359048
0.0126612 -0.00453534 0.00132281
0.0315584 -0.000566918 0.0570697
-0.00359048 -0.00982658 0.0185193
-0.0145509 0.0122832 0.0111494
-0.00907068 0.00850377 0.00680301
-0.00151178 -0.00774788 0.00566918
-0.00793685 -0.0103935 0.00982658
-0.0128501 0.0226767 0.00132281
-0.0062361 0.0164406 -0.00453534
0.00510226 -0.00453534 -0.00434637
0.00699199 -0.0166296 0.000377945
-0.0175745 -0.0120942 0.00340151
-0.0366607 0.0398732 0.00548021
-0.0173855 -0.0109604 0.0117163
0.020787 0 -0.0599043
-0.0151178 0.0379835 0.0326923
0.0330702 -0.0447865 -0.00396842
0.00302356 -0.02759 0.00812582
-0.0519675 0.0587705 -0.0466762
-0.0185193 0.0368497 -0.055369
0.00812582 0.00642507 0.00264562
0.00850377 0.00377945 0.00661404
0.0158737 -0.00566918 -0.00472431
0.0154958 -0.00132281 -0.00585815
0.0126612 -0.00510226 0.00132281
0.0147399 -0.00548021 0.00113384
0.0107714 -0.00548021 0.00151178
0.0432747 -0.0156847 0.0884392
0.00812582 -0.0281569 0.0976988
0.0927855 0.0258892 0.0313695
-0.020598 0.0383614 0.00188973
-0.00944863 0.02759 -0.00888171
0.0115273 -0.0111494 -0.00831479
0.0143619 -0.0319364 0.000188973
-0.0319364 -0.103179 0.0404401
Vibration 12
-0.00340151 -0.00529123 0.0232436
-0.00302356 -0.0143619 0.0183303
0.00529123 -0.0194642 -0.00472431
0.013984 -0.0130391 -0.00453534
0.0143619 -0.00359048 0.00869274
0.00680301 -0.000566918 0.0120942
0.0162516 -0.0145509 -0.000188973
0.00718096 0.0062361 -0.0141729
0.00680301 0.0117163 -0.0444086
-0.00812582 -0.00321253 0.0226767
-0.00793685 0.00510226 0.0147399
-0.00453534 0.00377945 0.00510226
-0.00245664 -0.0075589 0.0041574
-0.00359048 -0.0162516 0.0113384
-0.00699199 -0.0132281 0.0202201
0.00340151 -0.00944863 -0.00736993
0.0062361 -0.0325033 -0.0253223
0.00982658 -0.0353379 -0.0315584
0.00925966 -0.0213539 -0.0196532
0.0062361 -0.0041574 -0.00132281
0.00377945 -0.0202201 -0.0173855
0.00434637 -0.034771 -0.0298577
0.00472431 0.0383614 0.0428968
-0.00302356 -0.020787 -0.0183303
0.0130391 -0.00245664 0.00680301
0.00340151 0.0107714 0.00302356
0.00434637 0.00888171 0.00510226
0.0115273 -0.000188973 0.00642507
0 0.00793685 0.00566918
-0.00774788 0.0245664 0.00075589
-0.0105825 0.027779 -0.00170075
0.00151178 0.0130391 0.00113384
0.0128501 -0.00151178 0.00510226
-0.0270231 0.041574 -0.0217318
-0.0168186 0.0308025 -0.00604712
-0.0362827 0.0362827 0.0294797
-0.00982658 -0.0183303 0.0268341
-0.00396842 0.0820141 0.0306136
-0.00944863 0.0134171 0.0156847
-0.00396842 0.0109604 -0.00132281
-0.00188973 -0.0253223 0.0103935
-0.00925966 -0.0196532 0.0253223
0.0130391 -0.0449755 -0.0402512
0.0109604 -0.0200311 -0.0194642
0.00151178 -0.0173855 -0.0158737
0.00283459 -0.0428968 -0.0379835
-0.0298577 0.0325033 0.0572587
-0.00151178 0.0610381 0.0697309
0.0444086 0.0582036 0.0398732
0.000377945 -0.0171965 -0.0315584
-0.00359048 -0.0215429 -0.0162516
-0.0096376 -0.0309915 -0.0160627
-0.0158737 0.0351489 -0.00075589
-0.0219208 0.0419519 -0.00548021
0.00075589 0.0141729 -0.000188973
0.0200311 -0.0107714 0.00661404
-0.0241885 -0.118864 0.0434637
Vibration 13
0.00113384 0.00245664 0.00340151
0.00075589 0.00453534 0.00283459
-0.00075589 0.00566918 -0.00453534
-0.00302356 0.00359048 -0.0117163
-0.00377945 0.00113384 -0.00604712
-0.00226767 0.00113384 -0.00075589
-0.00718096 0.00925966 0.0100155
-0.00283459 -0.00642507 0.00113384
-0.00226767 -0.0234326 -0.000566918
0.00359048 0.00132281 0.00529123
0.00680301 0.00113384 0.00604712
0.00453534 0.00264562 0.00245664
-0.00075589 0.0041574 -0.00151178
-0.000944863 0.00245664 -0.000188973
0.00113384 0.00132281 0.00321253
-0.00736993 0.00812582 -0.00869274
-0.00075589 0.00699199 -0.00188973
-0.00377945 0.00566918 -0.000377945
-0.00377945 0.00151178 0.00075589
-0.000377945 -0.00075589 0.00075589
0.00264562 0.00321253 0.00245664
0.00245664 0.00718096 0.000944863
-0.000188973 -0.00888171 -0.00113384
0.00661404 -0.00170075 0.00151178
-0.000188973 -0.000188973 -0.000944863
-0.000944863 -0.0020787 -0.000377945
-0.0236216 0.0245664 -0.0105825
0.0200311 -0.0187083 0.00226767
0.00453534 -0.00264562 0
-0.061794 0.0627389 -0.0194642
-0.0334482 0.0313695 -0.00869274
0.0389284 -0.0444086 0.0126612
0.0629279 -0.0665184 0.0171965
-0.0245664 0.0145509 -0.0257003
0.0447865 -0.0459203 0.020409
-0.0245664 0.0183303 0.0185193
0.0020787 0.00529123 0.00793685
0.0421409 -0.223177 -0.0646286
0.0107714 0.000188973 0.00925966
0.00604712 0.00283459 0.00264562
-0.00377945 0.00283459 -0.00245664
0 0.00113384 0.00340151
-0.0062361 0.00718096 -0.000377945
-0.0062361 -0.000188973 0.00113384
0.00529123 0.00283459 0.0041574
0.00491329 0.00944863 0.00151178
0.00188973 -0.00944863 -0.00188973
0.00359048 -0.0120942 -0.00302356
-0.00585815 -0.0119053 -0.000188973
0.00377945 0.000566918 -0.0020787
0.00510226 -0.00321253 0.0185193
0.0202201 -0.00869274 -0.00510226
-0.108281 0.11036 -0.0328812
-0.0636838 0.0614161 -0.0156847
0.0736993 -0.0833369 0.0249444
0.110738 -0.116974 0.0317474
0.082959 0.25568 -0.101478
Vibration 14
0.00264562 0.00642507 0.0158737
0.00170075 0.0103935 -0.0020787
-0.00132281 0.0124722 -0.0194642
-0.00472431 0.0096376 -0.0126612
-0.0062361 0.00566918 0.00472431
-0.00264562 0.00434637 0.0117163
-0.0124722 0.0041574 0.0153068
-0.00302356 -0.0126612 -0.00188973
-0.00226767 -0.0425188 -0.0251334
0.0100155 0.00321253 0.0234326
0.0213539 0.0041574 0.0245664
0.0168186 0.0075589 0.0124722
0.000944863 0.0096376 0
0.000944863 0.00188973 0.00661404
0.00491329 0 0.0179524
-0.0194642 0.0226767 -0.0266451
-0.00113384 0.00377945 -0.0309915
-0.0122832 -0.00642507 -0.0308025
-0.0126612 -0.013606 -0.0156847
-0.000377945 -0.00888171 0.000188973
0.0120942 -0.0102045 -0.0130391
0.0111494 -0.00340151 -0.0287238
-0.00075589 -0.00113384 0.0396842
0.0158737 -0.00736993 -0.00264562
-0.00736993 0.00359048 0.0075589
-0.013606 0.0122832 0.00396842
-0.00302356 0.0041574 0.00321253
-0.0132281 0.0128501 0
-0.00491329 0.00188973 0.0041574
0.0154958 -0.013984 0.00736993
0.0194642 -0.0181414 0.00718096
0.000377945 0.00075589 0.00132281
-0.0162516 0.0166296 -0.0020787
0.0115273 -0.0173855 0.020598
-0.0239995 0.0313695 0.00491329
0.00736993 -0.0258892 -0.0141729
0.0041574 0.0117163 -0.00377945
0.0260782 -0.187083 -0.0461093
0.0323143 0.00377945 0.0338261
0.0224877 0.00944863 0.0117163
-0.00510226 -0.00075589 0.00075589
0.00170075 -0.00321253 0.0202201
-0.0217318 -0.00680301 -0.0387394
-0.0224877 -0.0194642 -0.0132281
0.0222988 -0.0132281 -0.00831479
0.020787 -0.00170075 -0.0357158
-0.0294797 -0.00869274 0.0519675
0.0107714 0.00736993 0.0591484
0.0156847 0.00548021 0.0425188
0.00132281 0.00472431 -0.0226767
0.0166296 -0.00604712 0.0512116
0.0525344 -0.0398732 -0.0219208
0.0266451 -0.0247554 0.0107714
0.0362827 -0.0351489 0.0111494
0 0.00132281 -0.000377945
-0.0283459 0.0283459 -0.0062361
0.0568808 0.198421 -0.075967
Vibration 15
0.00113384 0.00321253 0.0111494
0.00075589 0.0117163 0.000377945
-0.0062361 0.0156847 -0.0200311
-0.0132281 0.0107714 -0.0266451
-0.013795 0.00283459 -0.013795
-0.00680301 -0.00132281 -0.000566918
-0.0119053 0.0200311 -0.000566918
-0.0062361 -0.00585815 -0.00377945
-0.00642507 0.00170075 -0.00869274
0.0128501 -0.00283459 0.0239995
0.0258892 -0.00396842 0.0270231
0.0202201 -0.000188973 0.0154958
0.0020787 0.0041574 0.00151178
0.00699199 -0.00510226 0.0105825
0.0109604 -0.00680301 0.020598
-0.0285349 0.0226767 -0.0313695
-0.00699199 0.0175745 -0.0175745
-0.0187083 0.0109604 -0.0132281
-0.0188973 -0.000188973 -0.00359048
-0.00699199 -0.00359048 0.00245664
0.00529123 0.00529123 0.000944863
0.00434637 0.0156847 -0.0096376
-0.00642507 -0.0202201 0.0128501
0.0128501 -0.0096376 -0.00226767
-0.0119053 0.00566918 -0.00264562
0.00642507 -0.00831479 0.00396842
-0.000944863 -0.00245664 0.00170075
0.00566918 -0.0124722 0.00245664
0.00151178 -0.00699199 -0.000188973