[Molden Format]
[FREQ]
-11.6
5.2
20.6
26.9
27.6
29.8
40.2
41.1
43.3
56.5
63.0
72.0
83.1
96.7
102.9
107.1
134.1
145.9
158.7
174.8
183.9
212.6
218.5
235.0
260.7
263.9
279.2
294.9
312.5
318.9
325.3
335.3
348.9
356.3
363.6
371.6
417.6
434.5
454.3
478.8
486.4
501.2
515.2
523.2
540.6
548.8
561.3
576.4
593.5
613.7
616.2
630.2
631.0
644.0
650.5
665.5
672.5
689.4
703.0
715.6
718.6
733.8
758.2
780.4
797.6
813.2
817.8
830.2
845.9
857.3
879.0
881.9
896.6
900.6
937.9
969.9
973.3
1002.0
1005.8
1009.2
1009.6
1017.6
1018.6
1032.9
1033.9
1046.1
1068.4
1071.0
1080.9
1086.9
1125.9
1176.3
1178.1
1185.1
1186.1
1192.6
1196.6
1210.8
1232.0
1234.6
1259.6
1266.1
1267.4
1278.2
1280.7
1285.9
1296.4
1305.2
1306.6
1315.7
1324.7
1334.8
1337.8
1341.5
1342.7
1350.6
1354.8
1365.2
1370.0
1377.6
1392.2
1425.7
1444.1
1507.2
1519.6
1521.7
1529.0
1537.6
1556.5
1578.6
1593.6
1603.0
1634.7
1691.9
1694.6
1697.4
1699.1
1706.8
1707.1
1711.4
1731.6
1777.1
1846.1
2453.0
2583.5
2650.8
2652.4
2665.5
2671.6
2721.2
2725.0
2739.5
2743.5
2744.8
2746.6
2747.8
2748.9
2751.9
2755.9
2758.5
2763.5
2765.7
2767.1
2768.2
2778.6
       
[FR-COORD]
C -2.68152 -4.02852 -0.433125
C -0.0436527 -4.02852 -0.433125
C 1.26744 -1.72286 -0.433125
N 0.0134171 0.506825 -0.450511
C -2.51882 0.519675 -0.469219
C -3.98657 -1.70491 -0.476778
N -3.63451 3.00655 -0.407425
C -6.65202 -1.59115 -0.583925
N -8.83371 -1.46151 -0.693907
C -4.0546 -6.42375 -0.368308
C -3.54343 -8.27398 -2.19624
C -4.82428 -10.5524 -2.15769
C -6.61839 -10.9825 -0.243019
C -7.1426 -9.1663 1.59814
C -5.85021 -6.87898 1.51159
O -7.71651 -13.2874 -0.416874
C 4.0289 -1.52709 -0.339395
C 5.41501 -3.16302 1.20262
C 8.02056 -2.88675 1.39008
C 9.25815 -0.983791 0.0372276
C 7.8709 0.625688 -1.53427
C 5.26364 0.365851 -1.71398
C 12.0394 -0.642696 0.300655
C -9.48094 -13.9647 1.49383
C -2.4334 5.10869 -0.69901
C 2.23744 11.211 -0.930312
C 2.72196 9.16045 0.946564
C 1.73307 6.72232 0.843007
C 0.124722 5.78445 -1.27727
C 4.27116 9.86664 2.9697
C 4.87285 8.13546 4.8549
C 3.89246 5.69318 4.74737
C 2.32115 5.0004 2.75635
O 0.867195 5.88763 -3.46406
O 1.79014 13.363 -0.343174
O 2.51919 10.6567 -3.39697
H 0.993807 -5.80751 -0.4267
H -5.55164 3.04435 -0.113195
H -2.13974 -7.90132 -3.66191
H -4.47317 -12.0039 -3.57026
H -8.53438 -9.49606 3.0674
H -6.24101 -5.43655 2.93323
H 4.45749 -4.62737 2.28732
H 9.09676 -4.14738 2.60499
H 8.82691 2.09986 -2.60707
H 4.16911 1.65464 -2.90904
H 12.4894 1.20791 1.14045
H 13.0032 -0.7283 -1.54032
H 12.9191 -2.07435 1.51915
H -10.0091 -15.8932 0.928233
H -11.1329 -12.7201 1.4481
H -8.58465 -13.9728 3.35804
H 4.98982 11.7998 3.07893
H 6.08926 8.68896 6.41808
H 4.34089 4.32766 6.22173
H 1.57414 3.08006 2.68473
H 2.30811 8.81538 -3.81044

[FR-NORM-COORD]
Vibration 1
-0.00434637 0.00491329 -0.00359048
-0.00434637 0.0105825 -0.00642507
-0.00907068 0.013606 -0.00925966
-0.0145509 0.0105825 -0.0096376
-0.0145509 0.00510226 -0.00736993
-0.0096376 0.00188973 -0.00396842
-0.0185193 0.00302356 -0.00850377
-0.0100155 -0.00396842 -0.000944863
-0.0103935 -0.00869274 0.00170075
0.000944863 0.00188973 0.000377945
0.00245664 0.00151178 0.00132281
0.0075589 -0.00132281 0.00510226
0.0111494 -0.00359048 0.00793685
0.00982658 -0.00321253 0.00699199
0.00472431 -0.000377945 0.00321253
0.0162516 -0.0062361 0.0115273
-0.0096376 0.020598 -0.0120942
-0.00302356 0.0190862 -0.0194642
-0.00359048 0.0264562 -0.0213539
-0.0109604 0.0355268 -0.0153068
-0.0173855 0.0368497 -0.00812582
-0.0166296 0.0292908 -0.00661404
-0.0117163 0.0436527 -0.0162516
0.0198421 -0.00831479 0.0143619
-0.0194642 0.00548021 -0.00170075
0.0616051 -0.0272121 -0.0111494
0.0177634 -0.0236216 0.00453534
-0.0168186 -0.0100155 0.0132281
-0.0134171 -0.00340151 0.00793685
0.013606 -0.0328812 0.0111494
-0.0251334 -0.0287238 0.0270231
-0.0606602 -0.0149288 0.0368497
-0.0568808 -0.00510226 0.0304246
-0.00642507 -0.00907068 0.0100155
0.0859825 -0.0181414 -0.0258892
0.0765339 -0.0444086 -0.00529123
-0.000566918 0.0128501 -0.00661404
-0.0198421 0.000188973 -0.0168186
-0.000377945 0.00321253 -0.000944863
0.00888171 -0.00188973 0.00585815
0.0124722 -0.00491329 0.00925966
0.00340151 0 0.00245664
0.00283459 0.0122832 -0.0238105
0.00151178 0.0251334 -0.0272121
-0.0230547 0.0438416 -0.00359048
-0.0219208 0.0302356 -0.00113384
-0.0175745 0.041385 -0.00793685
-0.0130391 0.0555579 -0.0173855
-0.00585815 0.041196 -0.0234326
0.0236216 -0.0100155 0.0170075
0.0170075 -0.0120942 0.0151178
0.0221098 -0.00434637 0.0134171
0.041196 -0.0427078 0.00340151
-0.027779 -0.0362827 0.0317474
-0.0910848 -0.0115273 0.0491329
-0.0856046 0.00604712 0.0389284
0.0440306 -0.0434637 0.00302356
Vibration 2
-0.00434637 -0.000188973 0.0103935
-0.00434637 0.00151178 0.00793685
-0.00604712 0.00264562 0.0188973
-0.00774788 0.00170075 0.0313695
-0.00793685 0 0.034582
-0.0062361 -0.000944863 0.0253223
-0.00869274 -0.00075589 0.047999
-0.00642507 -0.0020787 0.0300466
-0.00680301 -0.00302356 0.034393
-0.00264562 -0.00170075 -0.00302356
-0.00434637 0.0113384 -0.0166296
-0.00245664 0.0100155 -0.0300466
0.00113384 -0.00434637 -0.0298577
0.00283459 -0.0173855 -0.0166296
0.00075589 -0.0156847 -0.00321253
0.00283459 -0.0041574 -0.0434637
-0.0062361 0.00510226 0.0183303
-0.0041574 0.00264562 0.013606
-0.00472431 0.00680301 0.0158737
-0.0075589 0.0134171 0.0226767
-0.0096376 0.0153068 0.0262672
-0.00888171 0.0111494 0.0241885
-0.00850377 0.0185193 0.0258892
0.00585815 -0.0181414 -0.0459203
-0.0122832 0.000188973 0.0383614
0.0113384 -0.00888171 -0.0311805
0.0170075 -0.00264562 -0.0257003
0.00453534 0.00151178 -0.00529123
-0.0168186 -0.00245664 0.0128501
0.0372276 0.000188973 -0.0419519
0.0451645 0.00680301 -0.0385504
0.0325033 0.0109604 -0.0179524
0.0119053 0.00869274 -0.000944863
-0.0379835 -0.0100155 0.00529123
0.0266451 -0.0041574 -0.0370386
-0.0107714 -0.0211649 -0.0309915
-0.00302356 0.00226767 -0.00264562
-0.00585815 -0.00226767 0.0667073
-0.00718096 0.0224877 -0.0164406
-0.00377945 0.0200311 -0.0406291
0.00548021 -0.0285349 -0.0166296
0.0020787 -0.0257003 0.00718096
-0.0020787 -0.00245664 0.00850377
-0.00302356 0.00491329 0.0124722
-0.0117163 0.0202201 0.0311805
-0.0107714 0.0122832 0.0270231
-0.0126612 0.0192752 0.0264562
-0.00642507 0.020409 0.0268341
-0.00718096 0.0200311 0.0266451
0.00604712 -0.0145509 -0.0582036
0.00510226 -0.0187083 -0.0349599
0.00831479 -0.0304246 -0.0470542
0.0468652 -0.00264562 -0.0574477
0.0612271 0.00869274 -0.0517785
0.0383614 0.0160627 -0.0151178
0.00132281 0.0120942 0.0156847
-0.0258892 -0.0219208 -0.020976
Vibration 3
-0.0062361 0.000944863 -0.0198421
-0.00604712 0.00113384 -0.0198421
-0.00680301 0.00132281 -0.020409
-0.00774788 0.00075589 -0.0221098
-0.0075589 0.000944863 -0.020976
-0.00699199 0.000566918 -0.0224877
-0.00566918 0.00151178 -0.0111494
-0.00680301 0.000188973 -0.0255113
-0.00661404 0 -0.0289128
-0.00548021 0.00075589 -0.0109604
-0.00548021 -0.0075589 -0.00245664
-0.0020787 -0.00925966 0.0107714
0.00113384 -0.00245664 0.0154958
0 0.00661404 0.0062361
-0.00340151 0.00793685 -0.00699199
0.00566918 -0.00548021 0.0298577
-0.00736993 0.00661404 -0.0103935
-0.0105825 0.013606 -0.000377945
-0.0132281 0.0270231 0.0188973
-0.0130391 0.0334482 0.0279679
-0.00925966 0.0239995 0.0149288
-0.00642507 0.0103935 -0.00434637
-0.0175745 0.0510226 0.0523454
0.0117163 0.000566918 0.0376055
-0.00283459 0.00170075 0
-0.00188973 -0.00396842 0.0217318
0.0149288 -0.0177634 0.0020787
0.0109604 -0.0160627 -0.00604712
-0.00264562 -0.000566918 -0.00283459
0.034771 -0.0338261 -0.0075589
0.0506447 -0.0478101 -0.0255113
0.0449755 -0.0451645 -0.0323143
0.0245664 -0.0289128 -0.0221098
-0.0109604 0.0100155 -0.00529123
0.00188973 -0.00869274 0.0417629
-0.0228657 0.0149288 0.0151178
-0.00585815 0.00132281 -0.0175745
-0.00529123 0.0020787 -0.0102045
-0.00793685 -0.0128501 -0.00604712
-0.00170075 -0.0158737 0.0177634
0.00170075 0.0124722 0.00907068
-0.0041574 0.0147399 -0.0141729
-0.0111494 0.00925966 -0.00680301
-0.0158737 0.0330702 0.027401
-0.00869274 0.027779 0.020787
-0.00396842 0.00359048 -0.013984
-0.0376055 0.0506447 0.0644397
-0.00151178 0.0661404 0.0600933
-0.0177634 0.0517785 0.0532903
0.0160627 -0.00434637 0.0500777
0.00793685 -0.00453534 0.0338261
0.0156847 0.013984 0.0359048
0.0381725 -0.0355268 -0.000944863
0.0667073 -0.0606602 -0.0334482
0.0561249 -0.0559359 -0.0457314
0.0198421 -0.0268341 -0.0264562
-0.0202201 0.0173855 0.00359048
Vibration 4
-0.00869274 0.00718096 -0.0170075
-0.00888171 0.00302356 -0.0217318
-0.00510226 0.00113384 -0.0111494
-0.0020787 0.00302356 -0.00529123
-0.00226767 0.00642507 -0.00585815
-0.00566918 0.00869274 -0.0075589
0.000377945 0.00774788 -0.0041574
-0.00585815 0.0107714 0.00283459
-0.00642507 0.0113384 0.0124722
-0.00982658 0.0075589 -0.0170075
-0.034582 0.0202201 -0.0364717
-0.0270231 0.0160627 -0.0279679
0.00736993 -0.00075589 0.000377945
0.0281569 -0.0105825 0.0160627
0.0187083 -0.00566918 0.00680301
0.0166296 -0.00604712 0.0100155
-0.00510226 -0.00604712 -0.00302356
-0.0122832 -0.034204 -0.0260782
-0.0119053 -0.0445975 -0.0162516
-0.00396842 -0.0260782 0.0171965
0.00359048 0.00245664 0.0396842
0.00321253 0.0120942 0.0294797
-0.00359048 -0.0379835 0.0279679
0.0655735 -0.0296687 0.0466762
0.00151178 0.00661404 -0.00491329
0.00302356 0.00793685 -0.00264562
-0.000944863 0.00774788 -0.00188973
-0.00113384 0.00793685 -0.00340151
0.000566918 0.00812582 -0.00491329
-0.00453534 0.0075589 0.000944863
-0.00812582 0.00736993 0.0020787
-0.00774788 0.00736993 0.000188973
-0.0041574 0.0075589 -0.00283459
0.00151178 0.00925966 -0.00453534
0.00453534 0.00850377 -0.00321253
0.00529123 0.00774788 -0.00226767
-0.0122832 0.000944863 -0.0321253
0.000566918 0.00925966 -0.00283459
-0.0593374 0.0328812 -0.0568808
-0.0457314 0.0247554 -0.0417629
0.0514005 -0.0222988 0.0353379
0.0349599 -0.0126612 0.0183303
-0.0181414 -0.0491329 -0.0510226
-0.0177634 -0.0674632 -0.034771
0.00982658 0.0170075 0.0651955
0.00944863 0.0330702 0.0462983
0.00245664 -0.0391173 0.0268341
0.00245664 -0.0453534 0.0313695
-0.0147399 -0.0404401 0.0332592
0.0718096 -0.0328812 0.0515895
0.0525344 -0.0453534 0.0869274
0.106203 -0.027401 0.0270231
-0.00453534 0.00736993 0.00245664
-0.0111494 0.00736993 0.00434637
-0.0103935 0.00736993 0.00075589
-0.00396842 0.00736993 -0.00453534
0.00321253 0.00793685 -0.00264562
Vibration 5
-0.013606 0.0103935 -0.00132281
-0.0132281 0.00925966 0.00661404
-0.0122832 0.00812582 0.00774788
-0.00944863 0.00925966 0.00604712
-0.0096376 0.0105825 0.00283459
-0.0113384 0.0113384 -0.00396842
-0.00850377 0.0109604 0.00869274
-0.0107714 0.013795 -0.013795
-0.0102045 0.0158737 -0.0222988
-0.00944863 0.00793685 -0.00585815
0.0153068 0.00226767 0.00642507
0.0317474 -0.00661404 0.00907068
0.0222988 -0.0100155 -0.000377945
-0.00699199 -0.00226767 -0.0164406
-0.0226767 0.00661404 -0.0190862
0.0451645 -0.0213539 0.0075589
-0.0115273 0.000377945 0.00869274
-0.0226767 0.0236216 0.0432747
-0.020598 0.00907068 0.0353379
-0.00812582 -0.0294797 -0.0075589
0.00151178 -0.0502667 -0.0374166
-0.000944863 -0.034582 -0.0287238
-0.00472431 -0.047999 -0.020976
0.0455424 -0.0291018 0.00510226
-0.00888171 0.0117163 0.0119053
0.0113384 0.00925966 0.00359048
0.00699199 0.00548021 0.00075589
-0.00340151 0.0096376 0.00264562
-0.0107714 0.0143619 0.0062361
0.0151178 -0.00132281 -0.00302356
0.0128501 -0.00396842 -0.00472431
0.00188973 0.000188973 -0.00226767
-0.0062361 0.00736993 0.00170075
-0.0192752 0.0190862 0.00359048
0.0241885 0.0109604 0.00699199
0.000944863 0.0100155 0.00226767
-0.0134171 0.00907068 0.0115273
-0.00812582 0.0109604 0.0115273
0.0230547 0.00453534 0.0141729
0.0525344 -0.0117163 0.0194642
-0.0168186 -0.00377945 -0.0260782
-0.0447865 0.0119053 -0.0304246
-0.0326923 0.0532903 0.0744552
-0.0287238 0.027779 0.061794
0.0109604 -0.0789905 -0.0684081
0.00642507 -0.0500777 -0.0514005
0.0107714 -0.0500777 -0.0243775
-0.0128501 -0.0555579 -0.0247554
-0.00888171 -0.0527234 -0.0236216
0.0704868 -0.0393063 0.0162516
0.0311805 -0.0489439 -0.0102045
0.0379835 -0.00585815 0.00888171
0.0236216 -0.00434637 -0.00453534
0.0194642 -0.00944863 -0.00793685
-0.000188973 -0.00188973 -0.00359048
-0.0147399 0.0107714 0.00396842
-0.0096376 0.0111494 0.00170075
Vibration 6
0.00510226 -0.00188973 0.00245664
0.00472431 -0.00245664 -0.00302356
0.00359048 -0.00170075 -0.00850377
0.00396842 -0.0020787 -0.0153068
0.00359048 -0.0020787 -0.00774788
0.00434637 -0.00245664 0.00585815
0.00377945 -0.0020787 -0.0141729
0.00340151 -0.00548021 0.0262672
0.00226767 -0.00907068 0.0451645
0.00264562 -0.00075589 0.00170075
-0.0349599 0.020409 -0.0296687
-0.0427078 0.0245664 -0.0357158
-0.0105825 0.00736993 -0.0096376
0.0287238 -0.0141729 0.0228657
0.034582 -0.0170075 0.0281569
-0.0230547 0.013984 -0.0200311
0.00359048 -0.000377945 -0.00453534
-0.00491329 0.0381725 0.0436527
-0.00604712 0.0438416 0.0506447
0.000566918 0.0096376 0.00831479
0.00850377 -0.0302356 -0.0394953
0.00925966 -0.034393 -0.0453534
-0.00113384 0.0173855 0.0158737
0.0111494 -0.00510226 0.00472431
0.00434637 -0.00245664 -0.0156847
0.000377945 -0.00283459 0.00170075
-0.00302356 -0.00396842 0.00132281
0.000377945 -0.00510226 -0.00491329
0.00604712 -0.00321253 -0.0100155
-0.0103935 -0.00434637 0.00699199
-0.013606 -0.00604712 0.00642507
-0.00925966 -0.0075589 -0.000188973
-0.00226767 -0.00718096 -0.00585815
0.0109604 -0.00113384 -0.00812582
-0.00472431 -0.00396842 0.0020787
0.0096376 -0.000566918 0.00226767
0.00548021 -0.0020787 -0.00283459
0.00321253 -0.00132281 -0.0175745
-0.0585815 0.0338261 -0.0489439
-0.0729434 0.0410071 -0.0602823
0.0540462 -0.027779 0.0434637
0.0640617 -0.0323143 0.0515895
-0.0109604 0.0653845 0.0748331
-0.0120942 0.075589 0.0890061
0.013795 -0.0572587 -0.0718096
0.0145509 -0.0633058 -0.0810692
-0.0109604 0.0156847 0.0255113
0.00510226 0.0292908 0.0188973
0.000566918 0.0154958 0.0124722
-0.00585815 0.00396842 -0.0103935
0.0143619 0.000944863 0.0523454
0.0464873 -0.0323143 -0.0122832
-0.0134171 -0.00359048 0.0119053
-0.0194642 -0.00642507 0.0111494
-0.0113384 -0.00907068 -0.000944863
0.00132281 -0.00812582 -0.0109604
0.0128501 -0.000188973 -0.000188973
Vibration 7
-0.00888171 0.00642507 0.00434637
-0.00869274 0.00321253 0.00302356
-0.00548021 0.00132281 0.00113384
-0.00302356 0.00264562 0
-0.00302356 0.00585815 0.00113384
-0.0062361 0.00793685 0.00604712
0.00302356 0.00869274 -0.00661404
-0.0062361 0.0130391 0.0130391
-0.0062361 0.0183303 0.0202201
-0.00869274 0.0062361 0.000944863
0.00340151 0.00491329 0.00529123
0.0102045 0.00132281 0.00340151
0.0041574 -0.00132281 -0.00283459
-0.0102045 0.00075589 -0.00907068
-0.0164406 0.00453534 -0.00718096
0.0143619 -0.0062361 -0.0020787
-0.00548021 -0.000188973 -0.00170075
-0.00396842 -0.000944863 -0.00377945
-0.00396842 -0.000377945 -0.00566918
-0.00529123 0.000377945 -0.0062361
-0.00680301 0.000944863 -0.0041574
-0.00680301 0.000377945 -0.0020787
-0.00774788 0.0096376 0.00604712
0.0147399 -0.0122832 -0.00396842
0.0109604 0.00396842 -0.00982658
-0.00642507 -0.00925966 -0.00245664
0.000188973 -0.00359048 0.00170075
0.0117163 -0.00812582 0.000188973
0.0170075 -0.0109604 -0.00283459
-0.00736993 0.00434637 0.00434637
-0.00226767 0.00680301 0.00529123
0.0111494 0.00170075 0.00245664
0.0179524 -0.00642507 -0.000377945
0.0279679 -0.0211649 0.000566918
-0.0253223 -0.0117163 -0.00850377
0.00907068 -0.0120942 -0.000377945
-0.0107714 0.0020787 0.00302356
0.00245664 0.0151178 -0.0117163
0.00831479 0.00680301 0.0102045
0.020409 0 0.00718096
-0.0164406 -0.000566918 -0.0151178
-0.0272121 0.00566918 -0.0111494
-0.00283459 -0.00170075 -0.00396842
-0.00264562 0.000188973 -0.0062361
-0.00831479 0.00245664 -0.00359048
-0.00812582 0.000944863 -0.00075589
-0.0455424 -0.135304 0.349032
-0.0285349 0.380969 -0.020976
0.0444086 -0.196532 -0.274388
0.02759 -0.0168186 -0.000188973
0.00736993 -0.0222988 -0.0105825
0.0107714 -0.0020787 -0.0020787
-0.0171965 0.00793685 0.00585815
-0.00850377 0.0128501 0.00793685
0.0158737 0.00359048 0.00283459
0.0285349 -0.0103935 -0.00283459
0.0230547 -0.0134171 0.00113384
Vibration 8
-0.0151178 0.0122832 0.00680301
-0.0145509 0.00793685 0.0062361
-0.0105825 0.00529123 0.00321253
-0.0075589 0.00661404 -0.000377945
-0.00736993 0.0113384 0.000188973
-0.0117163 0.0141729 0.00793685
0.00245664 0.0158737 -0.0143619
-0.0117163 0.020976 0.0179524
-0.0119053 0.0283459 0.0283459
-0.013984 0.0115273 0.000944863
0.00226767 0.0119053 0.00453534
0.0132281 0.00604712 0.00113384
0.00718096 -0.00075589 -0.00604712
-0.0128501 0.000377945 -0.0130391
-0.0232436 0.00661404 -0.00944863
0.0232436 -0.00831479 -0.00604712
-0.0105825 0.00491329 0.000188973
-0.0075589 0.00604712 -0.00151178
-0.00774788 0.00982658 -0.00283459
-0.0113384 0.0124722 -0.00226767
-0.0141729 0.0103935 -0.00188973
-0.013795 0.00661404 -0.00075589
-0.0109604 0.013795 -0.00888171
0.0272121 -0.020409 -0.00661404
0.0175745 0.00793685 -0.0173855
-0.0122832 -0.0211649 -0.00113384
0.00113384 -0.0111494 0.00548021
0.0211649 -0.0190862 0.00283459
0.0302356 -0.0222988 -0.00283459
-0.0100155 0.0020787 0.00888171
0.000377945 0.00566918 0.00907068
0.0232436 -0.00340151 0.00453534
0.0332592 -0.0164406 0.000944863
0.0510226 -0.0421409 0.00359048
-0.048377 -0.0260782 -0.0117163
0.0170075 -0.0253223 0.00226767
-0.0175745 0.0062361 0.0075589
0.00151178 0.0270231 -0.0255113
0.00736993 0.0168186 0.0105825
0.0270231 0.00585815 0.00472431
-0.0198421 -0.00377945 -0.020598
-0.0381725 0.00699199 -0.013795
-0.00510226 0.0041574 -0.00170075
-0.00548021 0.0105825 -0.00434637
-0.0166296 0.0115273 -0.00264562
-0.0162516 0.00566918 -0.000188973
0.00340151 0.0837149 -0.172154
-0.00151178 -0.160627 0.00359048
-0.0323143 0.113762 0.124155
0.0455424 -0.0264562 -0.00283459
0.0158737 -0.0355268 -0.0115273
0.0249444 -0.00793685 -0.00548021
-0.0272121 0.00812582 0.0113384
-0.00850377 0.0153068 0.0126612
0.0330702 -0.00075589 0.00396842
0.0512116 -0.0232436 -0.00321253
0.0430858 -0.027779 0.00472431
Vibration 9
-0.00226767 -0.000188973 0.00774788
-0.00188973 -0.00075589 -0.0111494
0.000377945 -0.00226767 -0.0243775
0.0020787 -0.00113384 -0.0359048
0.00226767 0.000377945 -0.0147399
-0.000188973 0.00113384 0.0183303
0.00283459 0.00132281 -0.0245664
-0.0020787 0.00661404 0.0695419
-0.0041574 0.0134171 0.118675
0.0020787 -0.00245664 0.0107714
0.0294797 -0.0113384 0.0264562
0.0360938 -0.0147399 0.0219208
0.0120942 -0.0096376 0.00075589
-0.013795 -0.00264562 -0.013606
-0.0177634 -0.000188973 -0.00774788
0.0190862 -0.0124722 -0.00396842
0.000188973 -0.0062361 -0.0175745
-0.00850377 -0.013795 -0.0171965
-0.00982658 -0.0149288 0
-0.00170075 -0.00793685 0.0171965
0.00812582 -0.00245664 0.0141729
0.00907068 -0.00188973 -0.00359048
-0.00396842 -0.00718096 0.0387394
-0.0200311 -0.000188973 -0.0359048
0.00075589 0.00075589 -0.0313695
0.0103935 0.0170075 0.00529123
-0.00132281 0.00340151 -0.0062361
-0.00831479 0.00699199 -0.020409
-0.00434637 0.0164406 -0.0281569
-0.0041574 -0.0111494 0.00132281
-0.0145509 -0.0213539 -0.00472431
-0.0226767 -0.0173855 -0.0179524
-0.0194642 -0.00283459 -0.0253223
-0.00510226 0.034771 -0.02759
0.0268341 0.0168186 0.0194642
0.0020787 0.0306136 0.00170075
-0.00264562 -0.00132281 -0.013606
0.00264562 0.00245664 -0.0245664
0.0459203 -0.0149288 0.0410071
0.0582036 -0.020976 0.0338261
-0.0306136 0.000566918 -0.0287238
-0.0370386 0.00359048 -0.0166296
-0.0149288 -0.0185193 -0.0291018
-0.0173855 -0.020787 0.000566918
0.0149288 0.00170075 0.0260782
0.0166296 0.00226767 -0.00585815
-0.00888171 0.00226767 0.0202201
0.0120942 -0.0308025 0.048188
-0.0162516 0.00661404 0.0638727
-0.013606 -0.00132281 -0.0379835
-0.0164406 0.00340151 -0.0733214
-0.0563138 0.00566918 -0.0185193
0.00188973 -0.013984 0.0120942
-0.0168186 -0.0321253 0.000944863
-0.0317474 -0.0253223 -0.0226767
-0.0257003 0.000188973 -0.034582
-0.00661404 0.0334482 -0.00869274
Vibration 10
0 0.00888171 0.0353379
-0.000566918 0.0124722 0.0534792
-0.00396842 0.0147399 0.0317474
-0.00907068 0.0113384 -0.00226767
-0.00907068 0.00774788 -0.0119053
-0.00510226 0.00529123 0.0062361
-0.0107714 0.0075589 -0.0428968
-0.00491329 -0.00472431 -0.00736993
-0.00491329 -0.0156847 -0.0192752
0.00472431 0.00585815 0.0317474
-0.000188973 0.0226767 0.0132281
0.000377945 0.0224877 -0.00359048
0.00718096 0.00510226 -0.00113384
0.0160627 -0.013606 0.0198421
0.0141729 -0.0115273 0.0357158
0.0041574 0.00812582 -0.0228657
-0.00434637 0.0179524 0.0319364
0.00132281 0.00699199 0.0154958
0.0041574 -0.00548021 -0.00472431
0.00170075 -0.00585815 -0.00736993
-0.00510226 0.0128501 0.0179524
-0.0075589 0.0241885 0.0372276
0.00736993 -0.0279679 -0.0389284
0.00510226 -0.00925966 -0.0283459
-0.00661404 0.00585815 -0.041574
-0.00226767 -0.000188973 0.00793685
0.00283459 -0.0107714 -0.00510226
-0.00718096 -0.00661404 -0.0107714
-0.000188973 0.00075589 -0.0196532
0.0143619 -0.0245664 -0.00925966
0.0130391 -0.0326923 -0.0162516
-0.0041574 -0.0255113 -0.0168186
-0.0147399 -0.0119053 -0.0132281
0.0158737 0.000566918 -0.0143619
0.00132281 -0.00340151 0.0226767
-0.0156847 0.0141729 0.00340151
0.00113384 0.013606 0.0791795
-0.013984 0.00944863 -0.0657625
-0.00491329 0.0368497 0.0122832
-0.00510226 0.0357158 -0.0187083
0.0234326 -0.0289128 0.0234326
0.0190862 -0.0239995 0.0495108
0.00434637 0.00604712 0.0170075
0.00850377 -0.0162516 -0.0198421
-0.00812582 0.0164406 0.0202201
-0.0117163 0.0362827 0.0534792
0.0313695 -0.0400622 -0.0251334
-0.0166296 -0.0153068 -0.0521564
0.0128501 -0.0472432 -0.0655735
-0.00226767 -0.000566918 -0.0508336
0.00907068 -0.00340151 -0.00982658
0.00869274 -0.0349599 -0.0300466
0.0245664 -0.0285349 -0.00661404
0.0239995 -0.0438416 -0.020976
-0.00888171 -0.0309915 -0.020409
-0.0279679 -0.0062361 -0.0109604
-0.0041574 0.0149288 -0.00453534
Vibration 11
-0.0120942 -0.0117163 0.020409
-0.0113384 -0.0228657 0.0308025
-0.0020787 -0.0287238 0.0202201
0.00585815 -0.0236216 0.0132281
0.00699199 -0.0122832 0.00774788
-0.00245664 -0.00661404 0.00888171
0.0194642 -0.00548021 -0.0062361
-0.00132281 0.00510226 -0.00604712
0 0.0154958 -0.0198421
-0.020598 -0.00774788 0.0103935
-0.0171965 -0.00245664 0.00566918
-0.0162516 -0.00302356 -0.00396842
-0.0181414 -0.0107714 -0.0075589
-0.0272121 -0.013606 -0.00736993
-0.0291018 -0.0117163 0.00113384
-0.0105825 -0.013984 -0.0132281
-0.00170075 -0.0258892 0.00548021
0.0164406 -0.0171965 -0.00264562
0.0149288 0.00585815 -0.0096376
-0.00548021 0.0202201 -0.00831479
-0.0226767 0.00585815 -0.00793685
-0.0202201 -0.0177634 -0.00132281
-0.00982658 0.0538572 -0.00774788
0.0239995 -0.0421409 0.00869274
0.0281569 -0.013606 -0.0151178
0.0179524 0.0238105 0.00396842
0.00510226 0.0151178 -0.00188973
0.013795 0.0117163 -0.0111494
0.0219208 0.00113384 -0.013606
-0.0105825 0.0158737 0.0109604
-0.0160627 0.0154958 0.0120942
-0.00340151 0.0111494 -0.000566918
0.0124722 0.0096376 -0.0122832
0.0241885 0.00302356 -0.0130391
0.0704868 0.0326923 0.0149288
-0.034771 0.0272121 -0.00151178
-0.0190862 -0.0272121 0.0423299
0.0190862 0.00472431 -0.00869274
-0.013795 0.0020787 0.0100155
-0.0122832 0.00132281 -0.0075589
-0.0330702 -0.0171965 -0.013795
-0.0364717 -0.0141729 0.00151178
0.0323143 -0.0272121 -0.00226767
0.0294797 0.013795 -0.0143619
-0.0383614 0.013795 -0.0107714
-0.0336371 -0.027779 -0.000188973
-0.0321253 0.0651955 -0.020787
-0.00699199 0.0517785 -0.0062361
0.00548021 0.0729434 0.00359048
0.0423299 -0.047999 0.0111494
0.00699199 -0.0640617 0.0328812
0.047999 -0.034582 -0.00283459
-0.0187083 0.0188973 0.0196532
-0.0300466 0.0183303 0.0219208
-0.00642507 0.00925966 -0.00132281
0.0226767 0.00566918 -0.0224877
-0.0296687 0.0268341 -0.0020787
Vibration 12
-0.00680301 -0.0113384 0.0251334
-0.0062361 -0.0187083 0.034771
0.000377945 -0.0228657 0.0171965
0.00642507 -0.0187083 0.00453534
0.00718096 -0.0107714 0.0062361
0.00075589 -0.0075589 0.0102045
0.0115273 -0.00774788 0.00680301
0.00170075 -0.00151178 -0.00680301
0.00283459 0.0020787 -0.0238105
-0.0128501 -0.00850377 0.0185193
-0.0103935 -0.00264562 0.0126612
-0.0115273 -0.00188973 0.00075589
-0.0151178 -0.00907068 -0.0041574
-0.020409 -0.0141729 -0.000566918
-0.0198421 -0.013606 0.0102045
-0.0132281 -0.00925966 -0.0151178
0.00075589 -0.0226767 0.00548021
0.0141729 -0.0196532 -0.00377945
0.0132281 -0.0041574 -0.00888171
-0.00132281 0.00888171 -0.00377945
-0.013606 0.00113384 -0.00113384
-0.0117163 -0.0154958 0.00302356
-0.00453534 0.0334482 -0.00170075
0.013606 -0.034771 0.000377945
0.00548021 -0.00774788 0.00151178
0.00812582 0.0122832 0.000188973
0.00340151 0.0141729 0.00377945
-0.00661404 0.0187083 -0.00510226
-0.0147399 0.0417629 -0.00907068
0.013984 0.00188973 -0.00132281
0.0187083 -0.0109604 -0.0143619
0.0105825 -0.00736993 -0.0222988
-0.00377945 0.0075589 -0.0162516
-0.0389284 0.104313 -0.0149288
-0.0992106 -0.00812582 -0.0119053
0.159871 0.020598 0.013795
-0.0119053 -0.0219208 0.0506447
0.0124722 -0.00774788 0.0181414
-0.0062361 0.00170075 0.0177634
-0.00907068 0.00340151 -0.00396842
-0.0255113 -0.0185193 -0.0062361
-0.0251334 -0.0173855 0.0126612
0.0257003 -0.0283459 -0.00548021
0.0236216 -0.00132281 -0.0151178
-0.0243775 0.00850377 -0.00075589
-0.020787 -0.0217318 0.00510226
-0.0215429 0.0406291 -0.00812582
-0.00151178 0.0351489 -0.000377945
0.00642507 0.0457314 0.00472431
0.0247554 -0.0366607 -0.00396842
0.0020787 -0.0493218 0.0238105
0.0330702 -0.0362827 -0.00907068
0.0200311 -0.00151178 0.00453534
0.0294797 -0.0238105 -0.0181414
0.0151178 -0.0168186 -0.0323143
-0.0113384 0.0107714 -0.020787
0.106392 0.0266451 -0.00113384
Vibration 13
-0.0160627 0.00321253 0.000377945
-0.0160627 -0.00113384 -0.00302356
-0.0128501 -0.00359048 -0.00736993
-0.00907068 -0.00170075 -0.00377945
-0.00888171 0.00283459 -0.00283459
-0.0130391 0.00472431 -0.0041574
0.00170075 0.00793685 0.000188973
-0.0124722 0.00434637 -0.0147399
-0.0119053 0.000566918 -0.0279679
-0.00793685 -0.00170075 0.0075589
-0.0192752 0.0103935 -0.00812582
0.00170075 -0.00075589 0.00113384
0.0309915 -0.0230547 0.0241885
0.0470542 -0.0374166 0.0427078
0.0266451 -0.0255113 0.0340151
0.0508336 -0.0325033 0.0281569
-0.0128501 -0.00831479 -0.0120942
-0.0145509 -0.00982658 -0.0124722
-0.0154958 -0.00680301 -0.00699199
-0.0158737 -0.00226767 -0.000944863
-0.0134171 -0.00585815 -0.00680301
-0.0126612 -0.00888171 -0.0126612
-0.0185193 0.00793685 0.013606
-0.0582036 0.013795 -0.0563138
0.0115273 0.00283459 0.0062361
0.00925966 0.00925966 0.000944863
0.00151178 0.0120942 0.00604712
0.013984 0.00699199 0.00151178
0.0105825 0.00396842 0.00491329
-0.00944863 0.0190862 0.0122832
-0.00075589 0.0188973 0.00944863
0.0219208 0.0102045 -0.00188973
0.0289128 0.00434637 -0.00548021
0.00736993 0.0062361 0.00359048
0.0143619 0.0122832 -0.00585815
0.0166296 0.00283459 0.00321253
-0.0190862 -0.00302356 -0.00264562
0.00188973 0.0154958 -0.00075589
-0.0451645 0.0294797 -0.0281569
-0.00699199 0.00831479 -0.0103935
0.0769118 -0.0580146 0.0661404
0.0376055 -0.0351489 0.0466762
-0.0151178 -0.0120942 -0.0160627
-0.0160627 -0.00661404 -0.0062361
-0.0124722 -0.00548021 -0.00529123
-0.0117163 -0.0109604 -0.0156847
-0.0300466 0.0111494 0.0126612
-0.00793685 0.00793685 0.0190862
-0.0200311 0.0134171 0.0211649
-0.0844708 0.0291018 -0.0837149
-0.0226767 0.0583925 -0.130013
-0.14343 -0.0130391 -0.0154958
-0.0238105 0.0241885 0.0185193
-0.0103935 0.0247554 0.0147399
0.0334482 0.00831479 -0.00736993
0.0453534 -0.0020787 -0.0145509
0.0111494 0.00264562 0.00604712
Vibration 14
-0.00510226 -0.00642507 -0.0075589
-0.00491329 -0.0096376 -0.00642507
-0.00151178 -0.0115273 -0.000377945
0.00359048 -0.00831479 0.00170075
0.00359048 -0.00548021 -0.0122832
-0.000188973 -0.00377945 -0.00831479
0.00434637 -0.0041574 -0.0383614
-0.000377945 0.00113384 0.00188973
-0.00075589 0.00604712 0.0153068
-0.00736993 -0.00585815 -0.00774788
-0.0117163 -0.00585815 -0.00907068
-0.0075589 -0.00812582 -0.00396842
-0.000377945 -0.0111494 0.00226767
0.00113384 -0.0100155 0.00132281
-0.00245664 -0.00793685 -0.00340151
0.00793685 -0.0158737 0.0105825
-0.00113384 -0.0151178 -0.00510226
0.00245664 -0.0119053 -0.00510226
0.00170075 -0.00396842 -0.00396842
-0.00359048 0.000377945 -0.00283459
-0.00642507 -0.00907068 -0.0102045
-0.00529123 -0.0164406 -0.0109604
-0.00680301 0.0183303 0.00812582
-0.0128501 -0.00359048 -0.00434637
0.0075589 -0.00491329 -0.0255113
-0.00774788 0.00850377 0.00283459
0.0283459 0.00774788 -0.00718096
-0.0168186 0.0241885 0.0292908
0.0124722 0.00566918 0.0158737
0.08277 -0.00472431 -0.0453534
0.0582036 0.00831479 -0.0253223
-0.0317474 0.041385 0.0404401
-0.0640617 0.0462983 0.0636838
0.0521564 -0.00850377 0.0281569
-0.041385 -0.00245664 0.0168186
-0.0217318 0.0217318 -0.00170075
-0.00699199 -0.0109604 -0.00982658
-0.00113384 -0.00245664 -0.0729434
-0.0171965 -0.00434637 -0.013984
-0.00944863 -0.00812582 -0.00453534
0.00585815 -0.0109604 0.00566918
-0.00113384 -0.00774788 -0.00302356
0.00585815 -0.013795 -0.00491329
0.00472431 0.000377945 -0.00245664
-0.0096376 -0.00925966 -0.0132281
-0.00831479 -0.0215429 -0.013984
-0.0228657 0.0238105 0.00472431
0.00188973 0.0190862 0.0126612
-0.00321253 0.027779 0.0164406
-0.0120942 -0.00472431 -0.00170075
-0.00944863 0.000188973 -0.0255113
-0.0311805 0.00170075 0.00453534
0.140218 -0.0241885 -0.0869274
0.103935 -0.00434637 -0.0563138
-0.0697309 0.0606602 0.0701088
-0.122643 0.0674632 0.102423
0.0109604 0.0171965 0.000188973
Vibration 15
0.00113384 0.0122832 0.0338261
0.00075589 0.00888171 0.0194642
0.00566918 0.00604712 -0.0153068
0.00944863 0.00869274 -0.0145509
0.00869274 0.0102045 0.0109604
0.00453534 0.0126612 0.020409
0.000944863 0.00566918 0.0247554
0.0062361 0.020598 -0.00869274
0.00888171 0.0328812 -0.0468652
0.00226767 0.0128501 0.0381725
0.0115273 0.0224877 0.0306136
0.0119053 0.0230547 0.0124722
0.0041574 0.013606 0.00321253
0.000566918 0.000566918 0.0149288
-0.00113384 0.00283459 0.0317474
-0.00132281 0.0185193 -0.0255113
0.0075589 -0.0111494 -0.0379835
0.000188973 -0.0213539 -0.0410071
-0.00151178 -0.0221098 -0.0228657
0.00548021 -0.0109604 -0.000944863
0.0177634 -0.0211649 -0.0222988
0.0185193 -0.020787 -0.0406291
-0.00340151 0.0166296 0.0563138
0.0190862 -0.0145509 -0.0190862
-0.0102045 0.0109604 0.0126612
-0.00888171 -0.0124722 -0.00321253
0.000944863 -0.0120942 -0.00548021
-0.00529123 -0.00925966 -0.00188973
-0.00793685 -0.00396842 -0.00151178