[Molden Format]
[FREQ]
12.6
15.4
19.3
25.7
26.6
28.8
32.4
36.5
42.5
46.8
57.2
64.9
75.7
84.5
92.5
107.8
132.1
138.2
140.9
167.9
175.7
183.3
200.8
208.3
224.9
235.9
255.6
263.5
287.7
297.7
316.2
320.6
328.3
333.7
348.7
356.8
368.7
398.3
433.5
451.3
472.9
483.9
492.1
510.9
526.5
538.7
546.2
561.7
572.1
600.7
610.1
611.9
618.1
625.2
637.8
647.0
679.6
681.6
709.7
717.8
725.8
757.7
780.0
801.2
808.3
832.7
839.9
857.2
879.9
881.9
893.4
896.0
901.0
942.2
961.4
969.3
972.4
1006.0
1007.5
1009.0
1015.4
1018.5
1019.7
1032.8
1045.5
1049.6
1071.1
1074.2
1080.9
1094.7
1126.6
1163.6
1177.9
1183.3
1186.2
1187.9
1201.5
1205.8
1229.9
1232.2
1242.4
1262.2
1269.9
1276.7
1278.2
1286.9
1287.4
1295.8
1303.4
1308.3
1328.4
1330.6
1332.4
1341.5
1346.4
1349.5
1360.5
1366.2
1371.5
1381.5
1393.7
1426.1
1491.8
1517.1
1523.3
1527.5
1529.9
1542.5
1568.7
1575.6
1592.8
1611.2
1643.3
1691.3
1693.1
1694.3
1699.7
1705.6
1708.0
1712.1
1825.2
1850.8
1856.5
2450.6
2638.4
2650.3
2654.6
2666.7
2673.1
2714.7
2735.3
2737.9
2744.7
2744.9
2745.2
2745.8
2747.0
2751.9
2756.3
2762.9
2763.2
2765.2
2765.7
2770.2
2779.2
       
[FR-COORD]
C -0.41744 -3.84465 0.898943
C 2.21381 -3.84465 0.898943
C 3.52094 -1.5303 0.898943
N 2.28336 0.70449 0.829023
C -0.263617 0.722442 0.767229
C -1.72721 -1.53389 0.841873
N -1.47606 3.07307 0.662727
C -4.39229 -1.45074 0.79652
N -6.57908 -1.35456 0.771953
C -1.8062 -6.23893 0.946564
C -1.42013 -8.0217 -0.973965
C -2.79604 -10.2478 -1.00004
C -4.5618 -10.6828 0.937493
C -4.91915 -8.95787 2.90073
C -3.5302 -6.72591 2.88297
O -5.81469 -12.9027 0.667451
C 6.29222 -1.37742 0.987193
C 7.72936 -3.41398 1.86875
C 10.3489 -3.23918 1.97268
C 11.5657 -1.02348 1.20451
C 10.1333 1.0197 0.337694
C 7.51412 0.846408 0.230169
C 14.3689 -0.816173 1.36608
C -7.78548 -13.4176 2.42055
C -0.944674 5.23171 -5.21923
C -1.59398 8.00923 -4.78006
C -2.6511 8.77683 -2.30301
C -2.09155 7.53358 -0.0428968
C -0.294419 5.35511 -0.0183303
C -4.2704 10.8616 -2.26654
C -5.32563 11.681 0.00453534
C -4.75455 10.432 2.25085
C -3.13071 8.35542 2.23007
O 1.89785 5.53425 -0.592429
O -1.27727 9.4955 -6.4742
O -2.59743 3.67325 -5.21224
H 3.23729 -5.62628 0.908958
H -3.39357 3.07799 0.896864
H -0.0487549 -7.63771 -2.46704
H -2.55359 -11.6437 -2.48782
H -6.25934 -9.31219 4.41005
H -3.80024 -5.34622 4.39286
H 6.80736 -5.14251 2.50672
H 11.4519 -4.8256 2.67264
H 11.064 2.76089 -0.235082
H 6.38425 2.46061 -0.420653
H 14.9256 0.218074 3.08517
H 15.1788 0.20787 -0.249633
H 15.3092 -2.66508 1.44054
H -8.60865 -15.163 1.65521
H -9.1956 -11.9026 2.43302
H -7.00673 -13.7491 4.30725
H -4.70221 11.8541 -4.02776
H -6.59458 13.3023 0.0213539
H -5.57375 11.0744 4.02814
H -2.66659 7.39355 3.99337
H 1.05541 4.79159 -5.55447

[FR-NORM-COORD]
Vibration 1
-0.00793685 -0.00661404 -0.000944863
-0.00793685 -0.00453534 -0.00434637
-0.00944863 -0.00359048 -0.0100155
-0.0117163 -0.00491329 -0.0109604
-0.0117163 -0.00661404 -0.00680301
-0.0100155 -0.00774788 -0.00340151
-0.013606 -0.00774788 -0.0062361
-0.0100155 -0.0100155 -0.00170075
-0.0100155 -0.0117163 -0.00132281
-0.00585815 -0.0075589 0.00604712
-0.00774788 -0.0115273 0.00925966
-0.00510226 -0.0132281 0.0171965
-0.000377945 -0.0109604 0.0217318
0.00132281 -0.00699199 0.0185193
-0.00151178 -0.00529123 0.0105825
0.0020787 -0.0134171 0.0296687
-0.00944863 -0.000188973 -0.0151178
-0.00377945 -0.00472431 -0.034582
-0.00377945 -0.00075589 -0.0385504
-0.00925966 0.0075589 -0.0230547
-0.0147399 0.0117163 -0.00396842
-0.0147399 0.00774788 0
-0.00944863 0.0117163 -0.0270231
0.00718096 -0.0126612 0.0357158
0.0650066 0.0364717 0.00075589
0.0570697 0.0326923 0.0141729
0.0171965 0.0113384 0.00377945
-0.0154958 -0.00604712 0.00226767
-0.0124722 -0.00340151 0.00982658
0.0134171 0.00850377 -0.00453534
-0.0224877 -0.0113384 -0.013984
-0.0546131 -0.0281569 -0.0153068
-0.0510226 -0.0255113 -0.00699199
-0.00831479 0.00264562 0.027401
0.0833369 0.0470542 0.0315584
0.0668963 0.034204 -0.0236216
-0.00699199 -0.00396842 -0.00245664
-0.0153068 -0.0107714 -0.0194642
-0.0113384 -0.0132281 0.00548021
-0.00642507 -0.0162516 0.0198421
0.00472431 -0.00510226 0.0219208
-0.000188973 -0.0020787 0.00793685
0.00113384 -0.0119053 -0.0468652
0.000566918 -0.00453534 -0.0536682
-0.0190862 0.0181414 0.00793685
-0.0187083 0.0111494 0.0147399
-0.00812582 0.00680301 -0.0243775
-0.0141729 0.0188973 -0.0249444
-0.00604712 0.0132281 -0.0351489
0.00831479 -0.0156847 0.0417629
0.00472431 -0.0149288 0.0355268
0.0122832 -0.00680301 0.034582
0.0391173 0.0221098 -0.00302356
-0.0253223 -0.0134171 -0.020409
-0.0823921 -0.0434637 -0.0224877
-0.0763449 -0.0385504 -0.00736993
0.0684081 0.041385 0.0145509
Vibration 2
0.00113384 0.0062361 0.00491329
0.00113384 0.00510226 -0.00188973
0.00226767 0.00434637 -0.000566918
0.00226767 0.00472431 0.00491329
0.00226767 0.0062361 0.0126612
0.00151178 0.00661404 0.0145509
0.00283459 0.0062361 0.0128501
0.00132281 0.00736993 0.0264562
0.00132281 0.00812582 0.0374166
-0.000566918 0.00699199 -0.000566918
-0.0105825 0.0171965 -0.0120942
-0.0151178 0.0200311 -0.0200311
-0.00925966 0.0126612 -0.0164406
0.0020787 0.00132281 -0.00453534
0.00642507 -0.00113384 0.00340151
-0.0158737 0.0173855 -0.0257003
0.00245664 0.00510226 -0.00680301
0.00793685 -0.0075589 -0.0445975
0.00812582 -0.00604712 -0.0489439
0.00340151 0.00793685 -0.0160627
-0.00170075 0.0202201 0.020787
-0.00170075 0.0185193 0.0253223
0.00340151 0.0096376 -0.020598
-0.0128501 0.0130391 -0.0236216
0.0151178 -0.0447865 0.0326923
0.00944863 -0.041574 0.00491329
-0.000188973 -0.020976 -0.00566918
-0.00188973 0.00340151 0.00812582
0.00718096 0.0109604 0.0349599
-0.00850377 -0.0270231 -0.0308025
-0.0188973 -0.0096376 -0.0419519
-0.0211649 0.0141729 -0.0281569
-0.0126612 0.020409 -0.00302356
0.0153068 0.0198421 0.0706758
0.0130391 -0.0570697 -0.00774788
0.0171965 -0.0468652 0.0379835
-0.000377945 0.0041574 -0.00793685
0.000188973 0.00396842 -0.00661404
-0.0153068 0.0232436 -0.0149288
-0.0232436 0.0281569 -0.0291018
0.00736993 -0.00510226 -0.00151178
0.0149288 -0.00944863 0.0124722
0.0124722 -0.0196532 -0.0708647
0.0119053 -0.0162516 -0.0782347
-0.00548021 0.0306136 0.0462983
-0.00529123 0.0279679 0.0542351
0.00642507 -0.00132281 -0.0149288
-0.00151178 0.0213539 -0.0156847
0.00585815 0.0102045 -0.0351489
-0.020976 0.020598 -0.0325033
-0.00774788 0.0175745 -0.0100155
-0.00869274 -0.00170075 -0.0279679
-0.00699199 -0.0457314 -0.041574
-0.0253223 -0.0143619 -0.0614161
-0.0296687 0.02759 -0.0370386
-0.0147399 0.0387394 0.00736993
0.0173855 -0.0453534 0.0472432
Vibration 3
0.00170075 0.00151178 0.0221098
0.00170075 0.00302356 0.0126612
-0.000188973 0.00396842 0.0177634
-0.000566918 0.00377945 0.0279679
-0.00075589 0.0020787 0.034771
0.000566918 0.00151178 0.0379835
-0.00264562 0.00188973 0.0374166
0.000377945 0.00113384 0.055369
0.000188973 0.00151178 0.0716206
0.00245664 0.000944863 0.0102045
-0.00774788 0.0190862 -0.00888171
-0.0096376 0.020598 -0.0241885
-0.00113384 0.00340151 -0.020409
0.0102045 -0.0158737 -0.00132281
0.0119053 -0.0166296 0.013984
-0.00548021 0.00793685 -0.0372276
0 0.00283459 0.00944863
-0.00188973 0.0166296 0.0445975
-0.00132281 0.013606 0.0330702
0.000377945 -0.00321253 -0.0134171
0.00170075 -0.0164406 -0.0464873
0.000944863 -0.0132281 -0.0349599
0.00151178 -0.00718096 -0.0270231
-0.00113384 -0.00529123 -0.0362827
0.0239995 0.00699199 -0.00661404
0.0113384 0.00396842 -0.00548021
0.000566918 -0.000377945 -0.00850377
-0.00944863 -0.00453534 -0.00793685
-0.0132281 -0.00736993 -0.00925966
0.00151178 0.000188973 -0.0117163
-0.00661404 -0.0020787 -0.0147399
-0.0153068 -0.00491329 -0.0141729
-0.0168186 -0.00604712 -0.0107714
-0.0228657 -0.0175745 -0.0514005
0.0111494 0.00661404 -0.00321253
0.0308025 -0.000188973 -0.00736993
0.00359048 0.00396842 0
0.00151178 0.00396842 0.068786
-0.0143619 0.0326923 -0.0115273
-0.0177634 0.0349599 -0.0391173
0.0175745 -0.0300466 0.00188973
0.020409 -0.0313695 0.0289128
-0.00453534 0.0315584 0.0810692
-0.0020787 0.0249444 0.0600933
0.00340151 -0.0289128 -0.0818251
0.00151178 -0.0234326 -0.0602823
0.0107714 -0.000566918 -0.0340151
-0.00321253 -0.0160627 -0.0349599
-0.00170075 -0.00869274 -0.0228657
-0.00831479 0.00510226 -0.0519675
0.00302356 -0.00170075 -0.0154958
0.00434637 -0.027401 -0.0423299
0.00869274 0.00283459 -0.0120942
-0.00585815 -0.00151178 -0.0173855
-0.020976 -0.0062361 -0.0162516
-0.0232436 -0.00774788 -0.00982658
0.0258892 0.0164406 -0.00774788
Vibration 4
-0.00132281 -0.00245664 -0.0111494
-0.00170075 -0.00359048 -0.020787
-0.00113384 -0.00377945 -0.013795
-0.00151178 -0.00377945 -0.00831479
-0.00151178 -0.00302356 -0.00396842
-0.00170075 -0.00245664 0.000944863
-0.000377945 -0.00226767 -0.00302356
-0.0020787 -0.00340151 0.0215429
-0.00226767 -0.00491329 0.0408181
-0.00264562 -0.0020787 -0.0107714
-0.041385 0.0188973 -0.0377945
-0.0430858 0.0198421 -0.034204
-0.0041574 -0.000188973 -0.00321253
0.0349599 -0.020976 0.0219208
0.034771 -0.020787 0.0177634
-0.00982658 0.00264562 -0.00170075
-0.00132281 -0.00245664 -0.00642507
-0.000944863 -0.0117163 -0.0285349
-0.00188973 -0.00718096 -0.0126612
-0.00302356 0.00661404 0.0255113
-0.00302356 0.0145509 0.0442196
-0.00188973 0.00982658 0.0279679
-0.00453534 0.0126612 0.0462983
0.0292908 -0.0188973 0.0359048
-0.00869274 0.00472431 -0.013795
-0.000944863 0.00548021 -0.00774788
0.0041574 0.00396842 -0.00491329
0.00396842 -0.00151178 -0.00793685
-0.000944863 -0.00548021 -0.0141729
0.00982658 0.00812582 0.00075589
0.0154958 0.00736993 0.00359048
0.0151178 0.0020787 0.00075589
0.00925966 -0.00245664 -0.00510226
-0.00377945 -0.0105825 -0.0272121
0.000377945 0.00793685 -0.00548021
-0.0126612 0.00907068 -0.0149288
-0.00264562 -0.00434637 -0.0315584
0.000944863 0 0.00680301
-0.0706758 0.034393 -0.0604712
-0.0736993 0.0359048 -0.0542351
0.0651955 -0.0366607 0.0449755
0.0644397 -0.0355268 0.0364717
0.000188973 -0.0232436 -0.0580146
-0.00188973 -0.0145509 -0.0292908
-0.00396842 0.0241885 0.0721875
-0.0020787 0.0156847 0.0419519
-0.0192752 0.00831479 0.0538572
0.00396842 0.020409 0.055369
-0.000188973 0.0149288 0.0466762
0.0132281 -0.0102045 0.0336371
0.0287238 -0.0198421 0.0850377
0.0714316 -0.0404401 0.0149288
0.0100155 0.0122832 0.00302356
0.0200311 0.0109604 0.00812582
0.0194642 0.00132281 0.00302356
0.00925966 -0.00642507 -0.00718096
-0.0102045 0.000188973 -0.0166296
Vibration 5
-0.0219208 0.00793685 0.00151178
-0.0215429 0.00604712 0.00188973
-0.0192752 0.00434637 0.00642507
-0.0173855 0.00529123 0.0109604
-0.0173855 0.00793685 0.0103935
-0.0198421 0.00925966 0.00736993
-0.0120942 0.0107714 0.0100155
-0.0198421 0.0128501 0.0103935
-0.0196532 0.0162516 0.013795
-0.0164406 0.00472431 -0.00548021
0.00812582 0.00264562 0.000944863
0.0298577 -0.0105825 0.00113384
0.0258892 -0.0221098 -0.00491329
-0.00453534 -0.0162516 -0.0156847
-0.0257003 -0.00283459 -0.0158737
0.055369 -0.0393063 0.000377945
-0.0190862 0.00075589 0.00340151
-0.020787 -0.00283459 -0.0020787
-0.0202201 -0.00774788 -0.00850377
-0.0181414 -0.00925966 -0.00944863
-0.0166296 -0.00529123 -0.00264562
-0.0171965 -0.000377945 0.00377945
-0.0171965 -0.0151178 -0.0179524
0.0627389 -0.062361 0.00170075
-0.00566918 -0.0105825 0.0096376
0.0117163 -0.00472431 -0.000944863
0.0164406 0.0111494 -0.00377945
0.00680301 0.0143619 0.000566918
-0.00396842 0.00585815 0.00736993
0.0323143 0.0234326 -0.0109604
0.0379835 0.0389284 -0.013795
0.0272121 0.041196 -0.00982658
0.0115273 0.0287238 -0.00264562
-0.00264562 -0.00321253 0.00869274
0.0211649 -0.0134171 -0.00661404
-0.0149288 -0.00075589 0.0187083
-0.0230547 0.00510226 -0.00170075
-0.0120942 0.0162516 0.00907068
0.0119053 0.0105825 0.00642507
0.0508336 -0.0132281 0.00718096
-0.0109604 -0.0224877 -0.0228657
-0.048377 0.000377945 -0.0228657
-0.0224877 -0.00170075 -0.00151178
-0.0213539 -0.0105825 -0.0130391
-0.0147399 -0.0062361 -0.00264562
-0.0160627 0.00264562 0.00888171
-0.00982658 -0.0126612 -0.0217318
-0.0198421 -0.0202201 -0.0224877
-0.020976 -0.0170075 -0.0170075
0.0912738 -0.0793685 0.00982658
0.0385504 -0.0848487 -0.00680301
0.0667073 -0.0406291 0.00396842
0.0402512 0.0211649 -0.0141729
0.0510226 0.0491329 -0.0190862
0.0313695 0.0529123 -0.0120942
0.00340151 0.0304246 0.000566918
-0.00888171 -0.0238105 0.00831479
Vibration 6
-0.00188973 0.00718096 -0.020409
-0.0020787 0.00434637 -0.0198421
-0.000566918 0.00359048 -0.0147399
0.00283459 0.00510226 -0.0151178
0.00245664 0.0075589 -0.0154958
0.000566918 0.00850377 -0.0181414
0.00264562 0.00736993 -0.0126612
0.000377945 0.00888171 -0.0168186
0.000377945 0.00812582 -0.0160627
-0.00359048 0.00812582 -0.0179524
-0.0239995 0.0156847 -0.0287238
-0.0213539 0.013795 -0.0196532
0.00302356 0.00453534 0.000566918
0.0215429 -0.000944863 0.00888171
0.0175745 0.00151178 -0.00075589
0.00566918 0.00188973 0.0102045
-0.000566918 -0.00340151 -0.00699199
-0.0130391 0.00699199 0.0376055
-0.0128501 -0.0020787 0.0447865
-0.000566918 -0.0217318 0.0075589
0.0113384 -0.0315584 -0.0355268
0.0109604 -0.0221098 -0.0419519
-0.000188973 -0.0317474 0.0145509
0.0362827 -0.013606 0.0398732
0.0100155 -0.00113384 0.0153068
-0.00283459 -0.00283459 0.00699199
-0.0075589 -0.000944863 0.0041574
-0.00340151 0.00774788 0.00793685
0.00566918 0.0149288 0.0164406
-0.0177634 -0.00888171 -0.00245664
-0.0239995 -0.00831479 -0.00548021
-0.0196532 0.000377945 -0.00170075
-0.00925966 0.00831479 0.00491329
0.0120942 0.0257003 0.0461093
-0.00850377 -0.00642507 0.00283459
0.0168186 -0.00831479 0.0154958
-0.00321253 0.00377945 -0.0234326
0 0.00396842 -0.0321253
-0.041574 0.0222988 -0.0430858
-0.0370386 0.0188973 -0.0270231
0.0391173 -0.00718096 0.0228657
0.0317474 -0.00245664 0.00529123
-0.0238105 0.0236216 0.0672742
-0.0222988 0.00661404 0.0795575
0.0211649 -0.0461093 -0.0638727
0.0198421 -0.0291018 -0.0733214
-0.00170075 -0.0187083 0.00718096
0.0096376 -0.0496998 0.00812582
-0.00850377 -0.0351489 0.034204
0.0330702 -0.0154958 0.0474321
0.0287238 -0.020787 0.0668963
0.0678412 -0.0154958 0.0266451
-0.0213539 -0.0154958 -0.00529123
-0.0321253 -0.0147399 -0.0107714
-0.0245664 0.00075589 -0.0041574
-0.00642507 0.0147399 0.0075589
0.0126612 0.00642507 0.0211649
Vibration 7
-0.00944863 0.00472431 -0.00377945
-0.00925966 0.0020787 -0.00170075
-0.0062361 0.000377945 0.00491329
-0.00396842 0.0020787 0.013606
-0.00340151 0.00453534 0.00850377
-0.00661404 0.0062361 -0.00188973
-0.000944863 0.00699199 0.0190862
-0.0062361 0.0103935 -0.0141729
-0.00585815 0.0145509 -0.0258892
-0.0102045 0.00529123 -0.00529123
-0.00302356 0.00075589 0.000377945
0.00283459 -0.00283459 0.00453534
0.00113384 -0.00188973 0.00321253
-0.00925966 0.00453534 -0.00434637
-0.0147399 0.00793685 -0.00869274
0.0103935 -0.00812582 0.00982658
-0.00585815 -0.00359048 0.00434637
-0.00585815 -0.0175745 -0.027779
-0.00566918 -0.0217318 -0.0298577
-0.00472431 -0.0117163 0.000377945
-0.00434637 0.0020787 0.0321253
-0.00472431 0.00585815 0.0336371
-0.00434637 -0.0166296 -0.0020787
0.0151178 -0.0130391 0.013606
0.101667 0.0396842 0.0115273
-0.0351489 0.0115273 -0.0119053
-0.0164406 0.00434637 -0.00151178
-0.00188973 0.00377945 -0.00529123
-0.0075589 -0.00132281 -0.0154958
-0.0168186 0.00453534 0.0122832
0.00170075 0.0062361 0.0200311
0.0190862 0.00680301 0.0158737
0.0166296 0.00510226 0.00264562
-0.0145509 -0.00850377 -0.047999
-0.149477 0.00075589 -0.0436527
0.179713 -0.0430858 0.0425188
-0.0117163 0.00075589 -0.00491329
0.000944863 0.00925966 0.0338261
-0.00132281 0 0.00151178
0.00925966 -0.00680301 0.00925966
-0.0122832 0.00661404 -0.00680301
-0.0222988 0.0124722 -0.013984
-0.00585815 -0.0264562 -0.0515895
-0.00585815 -0.0332592 -0.055369
-0.00359048 0.00925966 0.0555579
-0.0041574 0.0156847 0.0565028
-0.000377945 -0.0264562 0.00245664
-0.00548021 -0.00888171 0.0020787
-0.00642507 -0.0181414 -0.013606
0.0253223 -0.0213539 0.0213539
0.00585815 -0.0217318 0.00850377
0.0185193 -0.000566918 0.0143619
-0.0315584 0.00377945 0.0147399
0.00245664 0.00661404 0.0294797
0.034204 0.00812582 0.0224877
0.0292908 0.00453534 -0.000944863
0.120187 0.136816 -0.00510226
Vibration 8
-0.000377945 -0.0132281 -0.00302356
-0.000377945 -0.00831479 0.00170075
-0.00661404 -0.00472431 -0.00113384
-0.0120942 -0.00831479 -0.0020787
-0.0120942 -0.0130391 -0.00566918
-0.00642507 -0.0162516 -0.00982658
-0.0120942 -0.0130391 -0.00548021
-0.00642507 -0.0243775 -0.0222988
-0.00661404 -0.0326923 -0.034393
0.000566918 -0.013984 -0.000377945
-0.0158737 -0.00793685 -0.00907068
-0.0230547 -0.00359048 -0.00869274
-0.0126612 -0.00529123 0.000188973
0.00680301 -0.0130391 0.0105825
0.0130391 -0.0170075 0.0100155
-0.0239995 0.00132281 -0.0020787
-0.00718096 0.00888171 -0.00434637
0.0041574 0.0281569 0.020409
0.00302356 0.0461093 0.0198421
-0.0102045 0.0442196 -0.00642507
-0.0219208 0.0247554 -0.0328812
-0.020787 0.00736993 -0.0315584
-0.0117163 0.0646286 -0.00585815
-0.0196532 0.00491329 0.0041574
0.0166296 -0.0119053 0.0158737
0.0100155 -0.0117163 0.00548021
0.0183303 -0.00113384 0.00566918
0.00774788 -0.00529123 0.00604712
-0.00321253 -0.013984 0.00680301
0.0379835 0.0141729 0.0062361
0.0474321 0.0249444 0.00680301
0.0351489 0.0188973 0.00642507
0.0151178 0.00302356 0.00604712
0.000188973 -0.0179524 0.0177634
-0.000188973 -0.0198421 -0.00359048
0.0217318 -0.0173855 0.0315584
0.0041574 -0.00548021 0.0062361
-0.0132281 -0.0124722 -0.0185193
-0.0239995 -0.0062361 -0.0158737
-0.0368497 0.00151178 -0.0158737
0.0164406 -0.0156847 0.0185193
0.0272121 -0.0219208 0.0168186
0.013606 0.0306136 0.0406291
0.0126612 0.0616051 0.0400622
-0.0323143 0.0234326 -0.0540462
-0.0304246 -0.00699199 -0.0502667
-0.0202201 0.0805023 -0.0126612
-0.0171965 0.0589595 -0.0122832
0.00075589 0.0716206 0.00774788
-0.0336371 0.013606 -0.00075589
-0.0102045 0.0134171 0.0179524
-0.0130391 -0.00907068 -0.00113384
0.0462983 0.0177634 0.00604712
0.0640617 0.0379835 0.00718096
0.041574 0.0264562 0.00661404
0.00585815 -0.0020787 0.00566918
0.0164406 -0.00718096 0.00793685
Vibration 9
-0.00377945 -0.00453534 -0.0170075
-0.00321253 -0.00604712 -0.0428968
-0.00170075 -0.00718096 -0.048188
0.000188973 -0.00642507 -0.0476211
-0.000377945 -0.00377945 -0.0232436
-0.00188973 -0.00264562 0.00226767
0.0020787 -0.00302356 -0.020976
-0.00245664 0.00510226 0.055369
-0.00264562 0.0156847 0.105636
-0.00245664 -0.00491329 -0.0075589
0.0217318 -0.0243775 0.0149288
0.0249444 -0.0264562 0.020976
0.00170075 -0.00907068 0.00359048
-0.0226767 0.00982658 -0.0173855
-0.0236216 0.0103935 -0.0222988
0.00661404 -0.0126612 0.0107714
-0.00188973 -0.00604712 -0.0417629
-0.00585815 0.00264562 -0.0158737
-0.00774788 0.0126612 0.0162516
-0.0062361 0.013606 0.0217318
-0.0020787 0.00151178 -0.013795
-0.000188973 -0.00831479 -0.0453534
-0.0100155 0.0292908 0.0682191
-0.0222988 0.00944863 -0.0151178
0.0120942 0.0041574 0.00226767
-0.00113384 0.00132281 0
0.00245664 0.000188973 0.00170075
0.00529123 0 0.00075589
0.00718096 0.00132281 0.000566918
0.0020787 0 0.00434637
0.00453534 -0.00075589 0.00585815
0.00699199 -0.00151178 0.00472431
0.00736993 -0.00132281 0.00226767
0.0115273 0.00718096 0.020598
-0.013606 0 -0.00359048
0.0190862 -0.00321253 -0.000188973
-0.00359048 -0.0062361 -0.0548021
0.000566918 -0.00226767 -0.0317474
0.0381725 -0.0379835 0.0264562
0.0449755 -0.041385 0.0381725
-0.0402512 0.0238105 -0.0296687
-0.041196 0.0228657 -0.0364717
-0.00793685 0.00283459 -0.0181414
-0.0109604 0.020598 0.0391173
-0.00075589 0.000566918 -0.0143619
0.00245664 -0.0162516 -0.069164
-0.0453534 0.0421409 0.0719986
0.0124722 0.0243775 0.0763449
-0.00151178 0.034771 0.0950532
-0.0115273 0.00132281 -0.00812582
-0.020787 0.0109604 -0.05518
-0.0529123 0.0302356 0.00132281
-0.000377945 0.000377945 0.00510226
0.00434637 -0.000944863 0.00774788
0.00869274 -0.00245664 0.00585815
0.00907068 -0.00226767 0.00113384
0.0145509 0.0126612 0.00566918
Vibration 10
-0.00075589 0.000188973 0.00075589
-0.000566918 -0.00113384 0.00132281
0.000566918 -0.00188973 0.00188973
0.00151178 -0.00113384 0.0020787
0.00170075 0 0.00170075
0.000377945 0.00075589 0.000944863
0.00245664 0.000377945 0.00170075
0.000566918 0.00245664 0.000188973
0.000566918 0.00396842 -0.000188973
-0.00188973 0.00075589 -0.000566918
-0.00132281 0.000944863 -0.000566918
-0.00151178 0.00113384 -0.00132281
-0.0020787 0.000944863 -0.0020787
-0.00340151 0.00132281 -0.00245664
-0.00321253 0.00113384 -0.00170075
-0.00132281 0.00075589 -0.00226767
0.00075589 -0.00302356 0.0020787
0.00113384 -0.00548021 -0.00661404
0.0020787 -0.00585815 -0.00529123
0.000944863 -0.00340151 0.00472431
-0.000377945 0.000188973 0.0109604
0.00075589 0.00075589 0.00982658
0.000566918 0.0120942 -0.00944863
0.00132281 -0.0020787 -0.000188973
0.000377945 0.000566918 -0.000944863
0.000188973 0.000377945 0.000377945
-0.000377945 -0.000944863 0.000566918
0.00132281 -0.000377945 0.000566918
0.0020787 0.000188973 0.000188973
-0.00264562 -0.00283459 0.00075589
-0.00321253 -0.00396842 0.000944863
-0.000944863 -0.00302356 0.000944863
0.00132281 -0.00113384 0.00075589
0.00170075 -0.000188973 -0.00132281
0.000377945 0.00132281 0.00132281
0.000188973 0.00075589 -0.00377945
-0.00170075 -0.00170075 0.00170075
0.00264562 0.000944863 0.00340151
-0.000566918 0.000944863 0
-0.000944863 0.00132281 -0.00132281
-0.00453534 0.00151178 -0.00340151
-0.00396842 0.00113384 -0.00188973
0.0020787 -0.00869274 -0.013606
0.000188973 -0.0100155 -0.0119053
0.00170075 0.00113384 0.0170075
0 0.00264562 0.0154958
-0.00793685 0.49303 -0.297065
0.0185193 -0.447109 -0.293474
-0.00869274 0.0294797 0.520808
0.0041574 -0.0041574 0.00170075
-0.00151178 -0.00472431 0.000188973
0.00359048 0.000377945 -0.000566918
-0.0041574 -0.00340151 0.000944863
-0.00510226 -0.00548021 0.00113384
-0.00132281 -0.00359048 0.00113384
0.00283459 -0.000377945 0.00075589
0.000566918 0.00075589 0.00075589
Vibration 11
0.0041574 0.00170075 -0.034582
0.00434637 0.000188973 -0.0493218
0.00548021 -0.000566918 -0.0196532
0.00736993 0.0020787 0.0232436
0.0075589 0.00340151 0.027779
0.00642507 0.00377945 -0.00529123
0.00718096 0.0062361 0.0699199
0.00661404 0.0100155 -0.0160627
0.00699199 0.0175745 -0.0287238
-0.000377945 0.00472431 -0.0326923
0.00226767 -0.0124722 -0.0156847
0 -0.0117163 0.00132281
-0.00529123 0.00699199 0.000566918
-0.0120942 0.0272121 -0.0181414
-0.00925966 0.0247554 -0.034771
-0.00396842 0.00377945 0.0217318
0.00585815 -0.00245664 -0.0211649
0.00359048 -0.00245664 -0.0177634
0.00283459 0.00151178 -0.00283459
0.00359048 0.00491329 0.00831479
0.00566918 0.00188973 -0.00283459
0.00661404 -0.00188973 -0.0177634
0.00151178 0.0128501 0.0340151
0.00453534 0.0141729 0.034393
-0.00604712 -0.0192752 0.0215429
0.0173855 -0.0117163 0.0145509
0.00188973 -0.00377945 0.00585815
-0.00907068 -0.00340151 0.00944863
-0.0134171 -0.0062361 -0.00132281
0.000944863 -0.00510226 -0.00472431
-0.0120942 -0.00604712 -0.0102045
-0.0224877 -0.00434637 -0.00661404
-0.0200311 -0.00283459 0.00377945
-0.0321253 -0.0217318 -0.0820141
0.0468652 -0.0147399 0.0175745
-0.0119053 -0.0130391 0.0916517
0.0041574 0 -0.0789905
0.0145509 0.00831479 0.127557
0.00642507 -0.02759 -0.0154958
0.00321253 -0.0257003 0.0151178
-0.0188973 0.0442196 -0.0202201
-0.0126612 0.0387394 -0.047999
0.0020787 -0.0041574 -0.0247554
0.00132281 0.00245664 0.00188973
0.00661404 0.00283459 0.00170075
0.00774788 -0.0041574 -0.0245664
-0.0177634 0.0151178 0.0391173
0.013795 0.0145509 0.041385
0.0062361 0.0156847 0.0436527
0.0115273 0.000566918 0.0578256
-0.00340151 0.00680301 0.0202201
0.0117163 0.0408181 0.0360938
0.0102045 -0.00604712 -0.00718096
-0.0143619 -0.0075589 -0.0173855
-0.0325033 -0.00396842 -0.0113384
-0.0272121 -0.000188973 0.00699199
-0.0185193 -0.0298577 -0.0374166
Vibration 12
0.00812582 -0.000944863 -0.00283459
0.00718096 0.00661404 -0.00510226
0.00075589 0.0105825 -0.00869274
-0.00453534 0.00699199 -0.0194642
-0.00566918 -0.000377945 -0.0188973
0.00132281 -0.00491329 -0.00774788
-0.0153068 -0.00548021 -0.0236216
0.00075589 -0.0187083 0.00226767
0 -0.0351489 0.0120942
0.0175745 -0.00642507 0.00585815
0.0119053 -0.00340151 0.00188973
0.013606 -0.00453534 0.00453534
0.020598 -0.00699199 0.0100155
0.034393 -0.0149288 0.0194642
0.0328812 -0.013984 0.0173855
0.0132281 -0.00302356 0.00812582
0.00075589 0.0062361 0.000944863
-0.00982658 -0.00264562 -0.000944863
-0.00925966 -0.0179524 0.000188973
0.00302356 -0.0232436 0.00434637
0.013795 -0.0122832 0.0120942
0.0124722 0.00245664 0.0103935
0.00472431 -0.0423299 -0.000377945
-0.0306136 0.0326923 -0.0304246
-0.0107714 0.0103935 0.00548021
-0.00453534 0.0141729 -0.0062361
-0.000188973 0.020409 -0.00699199
-0.0238105 0.00170075 -0.0109604
-0.0222988 0.00188973 -0.0105825
0.0236216 0.0387394 -0.0041574
0.0168186 0.034582 -0.00585815
-0.0170075 0.00869274 -0.0117163
-0.0368497 -0.00718096 -0.013984
-0.0192752 0.0132281 0.0041574
-0.00736993 0.00604712 -0.013984
-0.00774788 0.00699199 0.0786126
0.0115273 0.00907068 -0.00283459
-0.0183303 -0.0158737 -0.0466762
0.00434637 0.000566918 -0.00377945
0.00736993 -0.00170075 0.000944863
0.0459203 -0.0217318 0.0281569
0.0427078 -0.0187083 0.0232436
-0.0187083 0.00075589 -0.00396842
-0.0183303 -0.0257003 -0.00302356
0.0234326 -0.0154958 0.0183303
0.020976 0.00982658 0.0149288
0.0147399 -0.0292908 -0.0113384
0.00982658 -0.0642507 -0.0117163
-0.00850377 -0.048377 0.0168186
-0.0493218 0.0493218 -0.047999
-0.00226767 0.0593374 -0.0546131
-0.0718096 0.0154958 -0.0164406
0.0468652 0.055369 -0.000566918
0.0370386 0.0502667 -0.00283459
-0.0266451 0.00170075 -0.013606
-0.0612271 -0.0249444 -0.0173855
-0.020787 0.00982658 -0.0510226
Vibration 13
-0.00340151 -0.00113384 0.0285349
-0.00302356 -0.00699199 0.0421409
0.00245664 -0.0100155 0.0103935
0.00661404 -0.00850377 -0.0249444
0.00699199 -0.00302356 -0.0241885
0.00170075 0.00075589 0.00226767
0.0122832 -0.00264562 -0.0461093
0.00188973 0.00831479 0.00510226
0.00226767 0.0171965 0.0103935
-0.0109604 0.00264562 0.0228657
-0.00340151 0.00907068 0.0179524
-0.00888171 0.0132281 -0.000944863
-0.020976 0.00812582 -0.0128501
-0.0325033 0.00302356 -0.0105825
-0.02759 0.00075589 0.00699199
-0.0215429 0.0111494 -0.0328812
0.00264562 -0.00736993 0.00642507
0.0105825 -0.00226767 0.00434637
0.0103935 0.0062361 0.000377945
0.00264562 0.0096376 -0.00188973
-0.00491329 0.00434637 -0.00151178
-0.0041574 -0.00434637 0.00226767
0.0020787 0.0200311 -0.00529123
0.0323143 -0.0445975 0.0105825
-0.0105825 0.0124722 -0.0126612
0.00472431 0.0170075 -0.013795
0.00793685 0.00812582 -0.0107714
0.0147399 -0.00321253 -0.0188973
0.0198421 0 -0.0268341
-0.0041574 -0.00170075 0.00151178
-0.013795 -0.0260782 0.00585815
-0.00850377 -0.0379835 -0.0020787
0.00736993 -0.0253223 -0.0141729
0.0243775 0.00604712 -0.00566918
0.00718096 0.0175745 -0.0124722
-0.00774788 0.00982658 0.0995886
-0.0075589 -0.00925966 0.0721875
0.00718096 -0.00188973 -0.0816362
0.00831479 0.0113384 0.0291018
-0.00264562 0.0187083 -0.00510226
-0.0462983 0.00245664 -0.0230547
-0.0374166 -0.00283459 0.00869274
0.0173855 -0.00548021 0.00548021
0.0164406 0.0100155 -0.00075589
-0.0115273 0.00699199 -0.00434637
-0.00944863 -0.00774788 0.00170075
0.000566918 0.0141729 -0.00132281
-0.0041574 0.0308025 -0.00170075
0.00944863 0.0232436 -0.0153068
0.0457314 -0.0514005 0.0117163
0.00491329 -0.0704868 0.0610381
0.0840928 -0.0504557 -0.0119053
-0.00812582 0.00793685 0.00812582
-0.0260782 -0.0359048 0.0156847
-0.0170075 -0.0576366 0.00113384
0.0119053 -0.034771 -0.0202201
-0.0279679 0.0107714 -0.109982
Vibration 14
0.0160627 -0.00869274 -0.0153068
0.0158737 -0.000377945 -0.0151178
0.00831479 0.00434637 0.00396842
0.00226767 0.00132281 0.00869274
0.0020787 -0.00642507 0.00075589
0.0100155 -0.0111494 -0.00377945
-0.00907068 -0.0119053 -0.00264562
0.00925966 -0.0196532 0.0120942
0.00869274 -0.02759 0.0308025
0.0128501 -0.00661404 -0.0171965
0.0190862 -0.0221098 -0.00113384
0.000944863 -0.0115273 -0.000944863
-0.0221098 0.013795 -0.0160627
-0.0294797 0.0296687 -0.0313695
-0.0113384 0.0175745 -0.0317474
-0.0419519 0.0255113 -0.0177634
0.00812582 0.00888171 0.0164406
0.00680301 0.00831479 0.0181414
0.00736993 0.00264562 0.0100155
0.0102045 -0.0020787 0.00075589
0.0109604 0.00340151 0.0120942
0.0102045 0.00888171 0.0202201
0.0128501 -0.0151178 -0.0253223
0.0287238 -0.0111494 0.0510226
-0.00321253 -0.00075589 0.00302356
-0.0075589 -0.00151178 -0.00132281
0.00113384 0.00491329 0.000377945
-0.020976 -0.00831479 -0.00113384
-0.0173855 -0.00566918 0.0062361
0.0272121 0.0253223 0.00170075
0.0239995 0.0279679 -0.00075589
-0.0107714 0.00510226 -0.00491329
-0.0328812 -0.0124722 -0.00491329
-0.0145509 0.00434637 0.0200311
-0.020409 -0.00680301 -0.00869274
-0.00359048 -0.000377945 -0.020598
0.0217318 0.00302356 -0.0264562
-0.0102045 -0.0213539 -0.0107714
0.0377945 -0.0432747 0.0107714
0.00585815 -0.0230547 0.0105825
-0.0504557 0.0532903 -0.0445975
-0.0162516 0.0287238 -0.0425188
0.00491329 0.0113384 0.0238105
0.00604712 0.00113384 0.00850377
0.0126612 0.00245664 0.0119053
0.0111494 0.0119053 0.0264562
0.034582 -0.0185193 -0.0304246
0.00188973 -0.0183303 -0.0328812
0.00453534 -0.0196532 -0.0355268
0.0334482 -0.0251334 0.0778567
0.00264562 -0.0359048 0.0993996
0.0986437 0.00132281 0.0245664
0.0495108 0.0391173 0.00359048
0.0476211 0.0464873 0
-0.0185193 0.0020787 -0.00736993
-0.0570697 -0.02759 -0.00680301
0.000944863 -0.00075589 0.0264562
Vibration 15
0.00264562 0.00151178 0.0353379
0.00245664 -0.00075589 0.0268341
0.00585815 -0.00264562 -0.0103935
0.00812582 -0.000944863 -0.0151178
0.00718096 0.00132281 0.0096376
0.00548021 0.00226767 0.0192752
0.00132281 -0.000377945 0.0213539
0.00585815 -0.000188973 -0.00793685
0.00604712 -0.00529123 -0.041574
0.00188973 0.00226767 0.0360938
0.00944863 0.0105825 0.0291018
0.00529123 0.0143619 0.00944863
-0.00566918 0.00736993 -0.00151178
-0.00925966 -0.00453534 0.00812582
-0.00604712 -0.00566918 0.0264562
-0.0132281 0.0154958 -0.0298577
0.0075589 -0.0122832 -0.0359048
0.00548021 -0.0162516 -0.0406291
0.00453534 -0.0145509 -0.0226767
0.00718096 -0.00831479 -0.000566918
0.0117163 -0.0149288 -0.0234326
0.0122832 -0.0168186 -0.041196
0.00245664 0.00774788 0.0578256
0.0173855 -0.0253223 -0.00812582
-0.00188973 -0.00245664 0.0100155
-0.0062361 -0.00283459 0.00434637
-0.0020787 0.00529123 0.00377945
-0.0190862 -0.000377945 0.00548021
-0.013795 0.00359048 0.0103935