[Molden Format]
[FREQ]
11.4
17.4
25.4
26.8
28.6
30.3
31.5
37.6
48.3
57.3
62.3
80.9
90.3
99.6
107.4
119.3
135.5
151.1
157.5
181.0
195.8
217.7
222.1
236.9
248.3
257.6
274.3
289.5
302.8
310.9
321.4
335.9
350.0
353.5
357.3
368.5
400.4
409.4
450.6
471.2
486.3
498.8
502.2
520.5
538.4
541.7
558.5
561.9
567.0
589.1
611.7
612.4
618.1
627.4
635.7
646.1
660.2
663.1
676.3
712.5
718.9
748.8
758.6
782.1
794.4
801.9
813.0
827.3
845.0
879.7
880.0
882.3
895.4
900.9
936.9
966.1
974.1
1000.9
1008.5
1009.7
1015.6
1016.8
1021.9
1032.3
1043.6
1060.2
1070.8
1078.8
1081.6
1107.4
1126.0
1173.8
1177.5
1182.1
1183.5
1197.6
1205.9
1222.7
1234.9
1245.0
1262.8
1268.7
1275.6
1277.9
1282.9
1286.4
1296.0
1301.8
1319.7
1327.9
1328.1
1331.9
1335.1
1341.4
1349.8
1352.9
1364.2
1379.4
1388.0
1396.0
1419.6
1427.6
1500.0
1513.4
1521.5
1526.4
1530.1
1535.7
1544.4
1559.3
1600.1
1605.3
1608.1
1643.4
1685.9
1692.6
1697.8
1699.7
1705.5
1707.2
1710.2
1804.8
2291.6
2451.3
2651.0
2653.5
2667.4
2672.1
2704.1
2728.9
2743.9
2744.4
2745.2
2745.5
2749.9
2750.3
2755.2
2758.8
2760.4
2762.1
2764.7
2766.3
2769.3
2770.5
2779.3
       
[FR-COORD]
C -2.43208 -3.3399 -0.343552
C 0.20239 -3.3399 -0.343552
C 1.49969 -1.02574 -0.343552
N 0.272121 1.20697 -0.349221
C -2.28222 1.2304 -0.268152
C -3.74052 -1.0231 -0.325411
N -3.43477 3.60144 -0.105636
C -6.40579 -0.9271 -0.376811
N -8.59183 -0.825432 -0.431802
C -3.80175 -5.7442 -0.326356
C -3.34198 -7.53887 -2.22099
C -4.63399 -9.81391 -2.22383
C -6.39483 -10.2909 -0.290829
C -6.85819 -8.5357 1.62309
C -5.54956 -6.25556 1.5834
O -7.51884 -12.582 -0.513816
C 4.27324 -0.870786 -0.281947
C 5.61834 -2.3631 1.43241
C 8.23184 -2.14937 1.58076
C 9.52044 -0.455613 0.0122832
C 8.17061 1.02291 -1.70793
C 5.55258 0.822031 -1.85212
C 12.3212 -0.233003 0.20598
C -9.42142 -13.2028 1.27972
C 2.0392 8.35523 -1.69471
C -2.19586 5.85985 0.581469
C 0.308403 5.7922 1.82925
C 2.36991 6.97196 0.66405
C 3.15641 7.72463 -3.8524
C 0.599799 4.5737 4.14984
C 2.97518 4.46637 5.27706
C 5.05218 5.56864 4.08578
C 4.75172 6.83136 1.79845
O 4.23166 7.18663 -5.686
O -3.37297 7.79342 0.179713
O 0.541973 10.4753 -1.70548
H 1.24627 -5.11039 -0.345253
H -5.25306 3.77057 -0.753245
H -1.97363 -7.12805 -3.70991
H -4.32237 -11.2252 -3.68459
H -8.21464 -8.90628 3.11446
H -5.89613 -4.8583 3.06192
H 4.61887 -3.67287 2.6681
H 9.27855 -3.29965 2.92454
H 9.16271 2.34213 -2.93474
H 4.4898 1.9912 -3.17909
H 12.8728 0.753434 1.95284
H 13.1572 0.819952 -1.37572
H 13.2426 -2.09571 0.241885
H -10.0326 -15.0796 0.633814
H -10.9935 -11.8603 1.18713
H -8.62849 -13.3173 3.18589
H -1.01459 3.68364 5.06636
H 3.21612 3.50506 7.07778
H 6.91526 5.4443 4.94938
H 6.36479 7.73144 0.893273
H -1.15424 9.99949 -1.01762

[FR-NORM-COORD]
Vibration 1
-0.00113384 0.00226767 -0.0122832
-0.00113384 0.00377945 -0.013984
-0.00226767 0.00434637 -0.0228657
-0.00377945 0.00359048 -0.0292908
-0.00359048 0.00226767 -0.0270231
-0.00245664 0.00151178 -0.0202201
-0.00396842 0.00264562 -0.0302356
-0.00245664 0.000566918 -0.0202201
-0.00245664 -0.000188973 -0.020787
0.000188973 0.00151178 0
-0.000377945 -0.00774788 0.00869274
0.00170075 -0.00888171 0.0219208
0.0041574 -0.000566918 0.0260782
0.00434637 0.00925966 0.0173855
0.00226767 0.0100155 0.0041574
0.0062361 -0.00283459 0.0394953
-0.00245664 0.00661404 -0.0247554
-0.000566918 0.0122832 -0.0213539
-0.00075589 0.0151178 -0.0224877
-0.00283459 0.0126612 -0.0268341
-0.00453534 0.00680301 -0.0304246
-0.00434637 0.00377945 -0.0294797
-0.00283459 0.0145509 -0.0283459
0.0096376 0.00434637 0.0455424
0.020976 0.000188973 0.0260782
-0.00491329 -0.000566918 -0.0183303
-0.0149288 -0.00982658 0.00151178
-0.00245664 -0.0105825 0.0228657
0.0400622 0.00774788 0.0336371
-0.0364717 -0.020409 -0.00113384
-0.0457314 -0.0323143 0.0168186
-0.0330702 -0.0336371 0.0376055
-0.0117163 -0.0224877 0.041196
0.0568808 0.0141729 0.041574
0.00245664 0.00264562 -0.0236216
0.0239995 0.00226767 0.020976
-0.000188973 0.00434637 -0.00812582
0.00075589 0.00510226 -0.0419519
-0.00226767 -0.0141729 0.00510226
0.00132281 -0.0162516 0.0289128
0.00604712 0.0158737 0.020598
0.00245664 0.0173855 -0.00264562
0.000944863 0.0143619 -0.0177634
0.00075589 0.0194642 -0.0198421
-0.0062361 0.00453534 -0.034204
-0.00585815 -0.00075589 -0.0325033
-0.000566918 -0.0126612 -0.013795
-0.00699199 0.0408181 -0.0130391
-0.00075589 0.0149288 -0.0597153
0.0113384 -0.000188973 0.0566918
0.0075589 0.00151178 0.0400622
0.0120942 0.0160627 0.0451645
-0.0464873 -0.0188973 -0.0173855
-0.0627389 -0.0404401 0.0147399
-0.0400622 -0.0432747 0.0514005
-0.00188973 -0.0234326 0.0576366
0.0170075 0.00170075 0.00340151
Vibration 2
-0.000377945 -0.00869274 -0.00642507
-0.000377945 -0.0115273 -0.00321253
0.00264562 -0.0130391 -0.0020787
0.00491329 -0.0113384 -0.00529123
0.00491329 -0.00850377 -0.0109604
0.00245664 -0.00718096 -0.0120942
0.00548021 -0.00812582 -0.013984
0.00264562 -0.00472431 -0.0183303
0.00283459 -0.00302356 -0.0238105
-0.00283459 -0.00718096 -0.00075589
-0.00321253 -0.0141729 0.00566918
-0.0041574 -0.013795 0.013984
-0.00434637 -0.0062361 0.0156847
-0.00453534 0.00132281 0.00869274
-0.00377945 0.000566918 0.000377945
-0.0041574 -0.00718096 0.0247554
0.00245664 -0.0173855 0.00396842
-0.000566918 -0.0445975 -0.0170075
-0.000188973 -0.0514005 -0.0124722
0.00359048 -0.0306136 0.0134171
0.00699199 -0.00226767 0.0349599
0.00680301 0.0041574 0.0302356
0.00359048 -0.034771 0.0188973
-0.00302356 -0.000944863 0.0281569
-0.0113384 0.0436527 0.00661404
0.000188973 -0.00642507 -0.0105825
0.00283459 0 -0.0156847
-0.00472431 0.0211649 -0.0075589
0.000188973 0.0806913 0.00170075
0.0119053 -0.0158737 -0.0249444
0.0132281 -0.0124722 -0.027779
0.00642507 0.00718096 -0.0213539
-0.00283459 0.0238105 -0.0107714
0.00831479 0.114895 -0.00340151
-0.00869274 -0.0102045 -0.00340151
-0.0260782 0.0336371 0.0272121
-0.00283459 -0.0128501 -0.00113384
0.00453534 -0.00982658 -0.0124722
-0.00302356 -0.0200311 0.00434637
-0.00434637 -0.0192752 0.0192752
-0.00529123 0.00736993 0.0096376
-0.00396842 0.00642507 -0.00491329
-0.00302356 -0.0610381 -0.0364717
-0.00340151 -0.0731324 -0.0287238
0.0100155 0.0149288 0.0559359
0.00925966 0.0257003 0.0472432
-0.00377945 0.0323143 -0.0164406
0.0143619 -0.0986437 -0.0179524
-0.000566918 -0.0349599 0.096754
-0.00188973 -0.0041574 0.0362827
-0.00396842 -0.00226767 0.0228657
-0.00226767 0.00774788 0.0283459
0.0173855 -0.0315584 -0.0302356
0.0198421 -0.0253223 -0.0355268
0.00793685 0.00982658 -0.0243775
-0.00850377 0.0402512 -0.00472431
-0.0239995 0.013606 0.0187083
Vibration 3
-0.00850377 0.0109604 -0.0100155
-0.00850377 0.00907068 -0.0120942
-0.00642507 0.00793685 -0.0062361
-0.00472431 0.00907068 -0.0020787
-0.00472431 0.0105825 -0.00188973
-0.00661404 0.0117163 -0.00396842
-0.00302356 0.0113384 0.000377945
-0.00680301 0.0134171 0.00113384
-0.00680301 0.0145509 0.00585815
-0.00699199 0.0102045 -0.0113384
-0.00944863 0.013984 -0.0156847
0.000377945 0.00850377 -0.0109604
0.0130391 -0.000944863 -0.00170075
0.0122832 -0.00302356 -0.000188973
0.0020787 0.00302356 -0.00510226
0.0260782 -0.00793685 0.00491329
-0.0062361 0.00226767 -0.00302356
-0.0120942 -0.0105825 -0.0100155
-0.0111494 -0.0215429 -0.00850377
-0.00453534 -0.0196532 -0.000377945
0.00075589 -0.00472431 0.0075589
0.000188973 0.0062361 0.00604712
-0.00472431 -0.0211649 0.00264562
0.0462983 -0.0234326 0.0211649
0.0041574 -0.00642507 0.00075589
-0.000566918 0.00925966 0.00226767
-0.0020787 0.00510226 0.00491329
0.00113384 -0.000944863 0.00434637
-0.00075589 -0.0181414 0.00151178
-0.00642507 0.00793685 0.00680301
-0.00736993 0.00585815 0.00888171
-0.00453534 0.00075589 0.00925966
-0.000188973 -0.00264562 0.00661404
-0.00453534 -0.0291018 0.00264562
0.00340151 0.0115273 0.00132281
0.0107714 -0.00188973 -0.0041574
-0.00982658 0.00831479 -0.0175745
-0.00245664 0.013606 -0.00075589
-0.0183303 0.020976 -0.0219208
-0.00075589 0.0109604 -0.013606
0.0198421 -0.00907068 0.00510226
0.00170075 0.00132281 -0.00377945
-0.0170075 -0.0128501 -0.0162516
-0.0166296 -0.0319364 -0.0132281
0.00661404 -0.00188973 0.0154958
0.00472431 0.0168186 0.0119053
-0.0239995 0.233381 -0.134171
0.0222988 -0.258515 -0.14154
-0.0141729 -0.0190862 0.289506
0.0583925 -0.0296687 0.0281569
0.0334482 -0.0377945 0.0319364
0.062361 -0.013984 0.0149288
-0.00869274 0.0122832 0.00680301
-0.0105825 0.00812582 0.0107714
-0.00566918 -0.000566918 0.0113384
0.0020787 -0.00699199 0.00642507
0.00944863 0.00510226 -0.00245664
Vibration 4
-0.00226767 0.00226767 -0.0103935
-0.0020787 0.00113384 -0.00585815
-0.00188973 0.000566918 -0.00869274
-0.000377945 0.00113384 -0.0107714
-0.000377945 0.00226767 -0.00982658
-0.00113384 0.00302356 -0.0149288
0.0020787 0.00264562 0.00075589
-0.000944863 0.00491329 -0.0245664
-0.000566918 0.00699199 -0.0338261
-0.00264562 0.00264562 -0.00661404
0.00774788 -0.00736993 0.00548021
0.0100155 -0.00869274 0.0119053
0.00151178 0 0.00642507
-0.0102045 0.0107714 -0.0062361
-0.0120942 0.0117163 -0.0126612
0.00585815 -0.00283459 0.0149288
-0.00170075 0.000944863 -0.00377945
-0.0105825 0.0434637 0.0398732
-0.0113384 0.0493218 0.0487549
-0.00453534 0.0115273 0.013795
0.00377945 -0.0326923 -0.0308025
0.00453534 -0.0374166 -0.0394953
-0.00585815 0.020787 0.0247554
0.000377945 0.00396842 0.0113384
-0.0041574 0.0020787 0.00907068
0.00491329 -0.00245664 0.0130391
0.00944863 -0.0122832 0.00396842
0.00642507 -0.0113384 -0.000377945
-0.0217318 0.0103935 -0.00245664
0.0173855 -0.0224877 -0.00264562
0.0226767 -0.0330702 -0.0147399
0.0198421 -0.0338261 -0.020409
0.0119053 -0.0228657 -0.0134171
-0.0376055 0.0175745 -0.013984
0.00510226 0.000944863 0.0291018
0.00245664 0.00699199 0.0313695
-0.0020787 0.00113384 0.000377945
0.00132281 0.0075589 0.00453534
0.0143619 -0.0143619 0.00944863
0.0185193 -0.0166296 0.0213539
-0.0175745 0.0181414 -0.0109604
-0.020598 0.0194642 -0.0219208
-0.0168186 0.0733214 0.0661404
-0.0179524 0.0837149 0.0833369
0.00944863 -0.0625499 -0.0583925
0.0107714 -0.0704868 -0.0733214
-0.0196532 0.0903289 -0.0102045
0.0041574 -0.0408181 -0.0107714
-0.0041574 0.0232436 0.10488
0.0075589 -0.00170075 0.020787
-0.00245664 -0.000566918 -0.00377945
-0.00718096 0.0179524 0.0153068
0.0196532 -0.0224877 0.00151178
0.0291018 -0.0410071 -0.0198421
0.0238105 -0.0428968 -0.0304246
0.00982658 -0.0236216 -0.0177634
0.0041574 0.00718096 0.0353379
Vibration 5
-0.00283459 0.00699199 0.00529123
-0.00245664 0.00699199 0.0160627
-0.00113384 0.00604712 0.0141729
-0.000188973 0.00680301 0.0124722
-0.000377945 0.00736993 0.00453534
-0.00151178 0.00812582 -0.00548021
-0.000377945 0.00718096 0.00529123
-0.00075589 0.0119053 -0.0302356
0 0.0164406 -0.0529123
0 0.00585815 0.00453534
0.0489439 -0.0188973 0.0391173
0.0583925 -0.0239995 0.041196
0.0160627 -0.00434637 0.0075589
-0.0355268 0.020976 -0.0283459
-0.0425188 0.0249444 -0.0291018
0.0319364 -0.0126612 0.0147399
-0.00075589 0.00170075 0.00736993
0.00359048 -0.0119053 -0.00774788
0.00548021 -0.0243775 -0.0236216
0.00321253 -0.0230547 -0.0239995
-0.00151178 -0.00642507 -0.00604712
-0.00340151 0.00566918 0.00944863
0.00585815 -0.0404401 -0.0444086
-0.00736993 0.00472431 -0.020598
-0.00718096 -0.00113384 0.00529123
-0.00245664 0.00661404 0.0107714
-0.00264562 0.00642507 0.0113384
-0.00340151 0.00434637 0.00812582
-0.0175745 -0.0117163 0.00302356
-0.00188973 0.0105825 0.0132281
-0.00113384 0.0130391 0.0120942
-0.00188973 0.0113384 0.00925966
-0.00283459 0.00718096 0.00699199
-0.0264562 -0.0215429 0.00075589
-0.00264562 0.00680301 0.0130391
-0.00245664 0.0020787 0.00510226
-0.00283459 0.00680301 0.0243775
0.000566918 0.00812582 0.00264562
0.0805023 -0.0340151 0.0638727
0.0976988 -0.0432747 0.0680301
-0.0693529 0.0372276 -0.054991
-0.0810692 0.0428968 -0.054991
0.00585815 -0.0134171 -0.0075589
0.00907068 -0.0360938 -0.0362827
-0.00377945 -0.00377945 -0.00510226
-0.00661404 0.0173855 0.0224877
0.0262672 -0.0670853 -0.0359048
-0.00151178 -0.0239995 -0.0372276
-0.00434637 -0.0462983 -0.0771008
0.0175745 -0.00812582 -0.00642507
-0.0119053 -0.00453534 -0.0780457
-0.0517785 0.0376055 -0.000188973
-0.00113384 0.0117163 0.0153068
0 0.0162516 0.013606
-0.00151178 0.0134171 0.00869274
-0.00359048 0.00585815 0.00453534
-0.0020787 0.00680301 0.00907068
Vibration 6
0.00680301 -0.00907068 0.0224877
0.00680301 -0.00585815 0.0226767
0.00396842 -0.00434637 0.0134171
0.00188973 -0.00566918 0.00736993
0.00188973 -0.00831479 0.0100155
0.00453534 -0.0100155 0.0185193
-0.000944863 -0.00907068 0.00151178
0.00434637 -0.0122832 0.0215429
0.0041574 -0.013795 0.0247554
0.0075589 -0.00944863 0.0190862
0.0175745 -0.00982658 0.0217318
0.0105825 -0.00566918 0.00925966
-0.00736993 -0.00132281 -0.00585815
-0.013795 -0.00359048 -0.00548021
-0.00585815 -0.00774788 0.00736993
-0.0171965 0.00491329 -0.020409
0.0041574 -0.00113384 0.00491329
0.0103935 0.0179524 0.0162516
0.0111494 0.0194642 0.00396842
0.00510226 0.00170075 -0.0198421
-0.00170075 -0.0158737 -0.0298577
-0.0020787 -0.0170075 -0.0175745
0.00548021 0.00812582 -0.0332592
-0.0430858 0.0149288 -0.0444086
0.00132281 0.00566918 -0.0020787
-0.00359048 -0.00453534 -0.00831479
-0.00510226 0.00321253 -0.00491329
-0.00453534 0.00566918 -0.00132281
0.0196532 0.0151178 0.00453534
-0.00774788 0.00548021 -0.00321253
-0.0100155 0.00925966 0.00188973
-0.00907068 0.0105825 0.00472431
-0.00642507 0.00888171 0.00359048
0.0351489 0.0243775 0.0107714
-0.00604712 -0.00793685 -0.0173855
-0.00850377 -0.00132281 -0.0103935
0.00907068 -0.00453534 0.0281569
-0.000944863 -0.013606 0.000188973
0.0300466 -0.0124722 0.0325033
0.0175745 -0.00529123 0.0103935
-0.0251334 -0.00151178 -0.0153068
-0.0111494 -0.00944863 0.00774788
0.0149288 0.0313695 0.034204
0.0156847 0.034204 0.0130391
-0.00604712 -0.0287238 -0.0472432
-0.00736993 -0.0309915 -0.0255113
0.00151178 0.163839 -0.11962
0.0107714 -0.134171 -0.125478
0.00377945 0.0111494 0.135682
-0.0500777 0.0215429 -0.0563138
-0.0315584 0.027401 -0.0589595
-0.0659514 0.00377945 -0.0355268
-0.00831479 0.0041574 -0.00566918
-0.0124722 0.0111494 0.00321253
-0.0103935 0.0132281 0.00812582
-0.00566918 0.0100155 0.00604712
-0.00888171 -0.00812582 -0.0160627
Vibration 7
-0.0158737 0.00812582 0.00944863
-0.0156847 0.00548021 0.0096376
-0.0132281 0.00377945 0.0096376
-0.0100155 0.00510226 0.00793685
-0.0100155 0.00812582 0.0100155
-0.0130391 0.0096376 0.0141729
-0.0062361 0.0102045 0.0062361
-0.0130391 0.0128501 0.0238105
-0.0132281 0.0153068 0.0336371
-0.0128501 0.00642507 0.00075589
-0.00245664 0.013606 -0.0041574
0.0124722 0.00548021 -0.00925966
0.0168186 -0.0107714 -0.00925966
0.00226767 -0.0158737 -0.00812582
-0.0126612 -0.00699199 -0.00321253
0.0368497 -0.020409 -0.0113384
-0.0128501 -0.00321253 0.00850377
-0.0196532 0.0154958 0.0304246
-0.0185193 0.00377945 0.0243775
-0.0109604 -0.027401 -0.00340151
-0.00491329 -0.0447865 -0.0228657
-0.00642507 -0.0323143 -0.0166296
-0.00869274 -0.048188 -0.013795
0.0500777 -0.0434637 -0.00548021
0.00831479 0.0117163 -0.00585815
-0.00075589 0.0111494 -0.00529123
0.000188973 0.0117163 -0.00718096
0.0020787 0.00850377 -0.00699199
0.0243775 0.0226767 -0.00075589
-0.00151178 0.0122832 -0.0062361
-0.00188973 0.0075589 -0.0062361
0.000377945 0.00226767 -0.00736993
0.00226767 0.00264562 -0.00718096
0.0377945 0.0326923 0.0041574
0.00132281 0.0111494 -0.0117163
0.00302356 0.00812582 -0.0102045
-0.0171965 0.00453534 0.00925966
-0.00718096 0.0111494 0.00907068
-0.00491329 0.0257003 -0.00321253
0.0217318 0.0105825 -0.0122832
0.00283459 -0.0268341 -0.0103935
-0.0236216 -0.0115273 -0.00151178
-0.0258892 0.0396842 0.0508336
-0.0228657 0.0187083 0.0404401
0.000566918 -0.0682191 -0.0436527
-0.00170075 -0.0455424 -0.0319364
0.0126612 -0.148155 0.0355268
-0.0156847 0.034204 0.0374166
-0.0202201 -0.0565028 -0.124722
0.0695419 -0.0500777 -0.00453534
0.034393 -0.0614161 0.000377945
0.0574477 -0.0353379 -0.00793685
-0.00340151 0.0158737 -0.00585815
-0.00377945 0.00812582 -0.00585815
0.000377945 -0.00226767 -0.00831479
0.0041574 -0.00113384 -0.0075589
0.00283459 0.00453534 -0.0134171
Vibration 8
-0.0154958 0.000377945 0.00434637
-0.0147399 -0.00188973 -0.0041574
-0.0119053 -0.00396842 -0.00680301
-0.0103935 -0.00283459 -0.0041574
-0.0096376 0.000188973 0.00585815
-0.0128501 0.00188973 0.0124722
-0.00302356 0.00321253 0.0100155
-0.0128501 0.00812582 0.0272121
-0.0130391 0.0153068 0.0408181
-0.0132281 -0.00075589 0.00264562
0.0162516 -0.0119053 0.0196532
0.0260782 -0.0171965 0.0187083
0.00377945 -0.0117163 0
-0.0285349 0.000188973 -0.0187083
-0.0360938 0.00472431 -0.0168186
0.0183303 -0.0190862 0.00264562
-0.0122832 -0.000377945 -0.00850377
-0.00661404 -0.013984 -0.0247554
-0.00850377 0.00188973 -0.0149288
-0.0156847 0.0313695 0.0111494
-0.0202201 0.0404401 0.0224877
-0.0183303 0.0241885 0.0126612
-0.0187083 0.0559359 0.0279679
-0.00132281 -0.0158737 -0.0171965
0.0173855 -0.0062361 -0.00793685
0.00888171 0.000377945 -0.000377945
0.0128501 -0.00661404 -0.00812582
0.0141729 -0.0117163 -0.0107714
0.0243775 0.00170075 -0.00680301
0.0143619 -0.0102045 -0.0100155
0.0162516 -0.0200311 -0.0151178
0.0173855 -0.0255113 -0.0181414
0.0162516 -0.0213539 -0.0154958
0.0304246 0.00869274 -0.00529123
0.0145509 0.00377945 -0.000188973
0.0175745 -0.0062361 -0.00661404
-0.0166296 -0.00302356 -0.00812582
-0.00491329 0.00850377 0.0171965
0.0325033 -0.0162516 0.0332592
0.0504557 -0.0258892 0.0323143
-0.0468652 0.00548021 -0.0340151
-0.0600933 0.0120942 -0.0292908
-0.000944863 -0.0360938 -0.0434637
-0.00453534 -0.00793685 -0.0262672
-0.0253223 0.0608492 0.0404401
-0.0224877 0.0319364 0.0226767
-0.0396842 0.0742662 0.0243775
-0.0175745 0.0512116 0.0257003
-0.0020787 0.0646286 0.0487549
0.0181414 -0.0245664 -0.0100155
-0.00793685 -0.0257003 -0.048566
-0.0257003 0.0041574 -0.00585815
0.0134171 -0.00604712 -0.00736993
0.0168186 -0.0234326 -0.0170075
0.0188973 -0.0328812 -0.0224877
0.0171965 -0.0249444 -0.0173855
0.0179524 -0.00585815 -0.00529123
Vibration 9
0.0096376 0.00491329 -0.00283459
0.0096376 0.00831479 -0.020409
0.00831479 0.00907068 -0.0291018
0.00718096 0.00850377 -0.0402512
0.0075589 0.00566918 -0.0253223
0.00869274 0.0041574 0.00604712
0.00321253 0.00510226 -0.0376055
0.0075589 0.00548021 0.0565028
0.00642507 0.00869274 0.105447
0.013984 0.00264562 0.00491329
0.0264562 -0.00434637 0.0141729
0.0268341 -0.00434637 0.013606
0.0130391 0.00302356 0.00283459
0.0041574 0.0075589 -0.00359048
0.00548021 0.00680301 -0.00188973
0.0100155 0.00472431 0
0.00831479 0.00359048 -0.0173855
-0.00774788 -0.0020787 -0.00907068
-0.00812582 -0.0141729 0.00680301
0.00869274 -0.0198421 0.0141729
0.0253223 -0.0134171 0.00699199
0.0249444 -0.00151178 -0.00888171
0.00888171 -0.0349599 0.0308025
-0.020409 0.0226767 -0.0258892
-0.00377945 0.0102045 0.00944863
-0.0041574 0.00491329 -0.0257003
-0.0128501 -0.00170075 -0.00888171
-0.00642507 0.000188973 0.0041574
-0.034582 -0.000566918 -0.00302356
-0.0251334 -0.0111494 -0.0126612
-0.0294797 -0.0192752 -0.00396842
-0.0230547 -0.0175745 0.00850377
-0.0115273 -0.00736993 0.0124722
-0.0625499 -0.0096376 -0.0166296
-0.000377945 0.00604712 -0.0308025
0.0170075 0.0251334 0.0300466
0.0113384 0.00907068 -0.0241885
0.0075589 0.00188973 -0.0493218
0.0353379 -0.00907068 0.020787
0.0364717 -0.00944863 0.020409
-0.00396842 0.0117163 -0.00982658
-0.000944863 0.00944863 -0.00566918
-0.020976 0.00245664 -0.0145509
-0.0211649 -0.0188973 0.0130391
0.0381725 -0.0171965 0.0134171
0.0379835 0.00340151 -0.0151178
0.00529123 -0.0574477 0.0445975
0.0221098 -0.0213539 0.0468652
-0.00075589 -0.0402512 0.0143619
-0.0245664 0.0255113 -0.0304246
-0.00944863 0.0336371 -0.0514005
-0.048377 0.0213539 -0.0143619
-0.0302356 -0.0117163 -0.0224877
-0.0379835 -0.0268341 -0.00699199
-0.0266451 -0.0243775 0.0154958
-0.00661404 -0.0062361 0.0221098
0.00850377 0.0296687 0.013606
Vibration 10
0.000566918 -0.0062361 -0.0357158
0.000944863 -0.00642507 -0.05518
0.00170075 -0.00699199 -0.0366607
0.00434637 -0.00529123 -0.0115273
0.00472431 -0.00585815 -0.00245664
0.00321253 -0.00491329 -0.0100155
0.00302356 -0.00812582 0.0171965
0.00283459 0.000188973 0.0134171
0.00245664 0.00661404 0.0349599
-0.00132281 -0.00491329 -0.0285349
0.00434637 -0.0224877 -0.0103935
0.00377945 -0.0222988 0.00566918
-0.00434637 -0.00434637 0.00264562
-0.0122832 0.0141729 -0.0160627
-0.0100155 0.0122832 -0.0311805
-0.00359048 -0.00642507 0.0217318
0.00188973 -0.0100155 -0.0304246
-0.0100155 -0.00132281 -0.0134171
-0.0115273 0.00151178 0.00566918
-0.00132281 -0.00491329 0.00699199
0.0109604 -0.0177634 -0.0134171
0.0119053 -0.0198421 -0.0321253
-0.00340151 0.00132281 0.0319364
-0.0115273 0.0132281 0.020409
-0.0122832 0.00075589 -0.000944863
0.000188973 -0.00812582 0.0196532
0.00472431 0.00188973 0.0109604
-0.00604712 0.0183303 0.00869274
0.00982658 -0.00529123 0.0120942
0.0170075 0.00529123 0.0109604
0.0171965 0.0328812 0.0134171
0.00548021 0.0570697 0.0158737
-0.00585815 0.048188 0.0124722
0.0325033 -0.0119053 0.027401
-0.00888171 -0.0107714 0.0319364
-0.034204 -0.0154958 -0.0268341
0.00113384 -0.0062361 -0.0778567
-0.000944863 -0.00774788 0.0268341
0.00982658 -0.0366607 -0.00944863
0.0096376 -0.0359048 0.0200311
-0.0192752 0.0294797 -0.0187083
-0.0141729 0.0243775 -0.0434637
-0.0188973 0.00434637 -0.0143619
-0.020787 0.0096376 0.0198421
0.0194642 -0.0247554 -0.0141729
0.0213539 -0.0281569 -0.0468652
-0.020598 -0.00850377 0.0428968
0.00736993 0.0134171 0.0459203
0.000566918 0.00321253 0.0281569
-0.00774788 0.00548021 0.0391173
-0.0117163 0.0115273 -0.00245664
-0.020409 0.0353379 0.0253223
0.0260782 -0.0122832 0.0102045
0.0260782 0.0366607 0.0143619
0.00548021 0.0822031 0.0196532
-0.0149288 0.0642507 0.0122832
-0.0253223 -0.020409 -0.00907068
Vibration 11
0.0102045 0.0117163 -0.00831479
0.0096376 0.0213539 -0.0130391
0.00132281 0.0264562 -0.0075589
-0.00661404 0.0217318 -0.00359048
-0.00699199 0.0117163 0
0.00132281 0.00680301 -0.00340151
-0.0177634 0.00585815 0.0124722
0.00075589 -0.00472431 0.000566918
0.000188973 -0.0156847 0.00377945
0.0181414 0.00774788 -0.00170075
0.0160627 0.00566918 0.000188973
0.0154958 0.00585815 0.00510226
0.0168186 0.00982658 0.00718096
0.0243775 0.00944863 0.00944863
0.0253223 0.00850377 0.00529123
0.00982658 0.0132281 0.00850377
0.00113384 0.0255113 0.00151178
-0.0105825 0.0128501 0.000377945
-0.00944863 -0.00661404 0.00321253
0.0041574 -0.0128501 0.00736993
0.0153068 0.00510226 0.0141729
0.013606 0.0245664 0.0113384
0.00661404 -0.041196 0.00472431
-0.0168186 0.0355268 -0.0119053
-0.0194642 -0.0219208 -0.0128501
-0.0257003 0.00604712 0.0238105
-0.0181414 0.00132281 0.00793685
-0.0173855 -0.0211649 -0.0132281
0.0143619 -0.00359048 -0.00132281
-0.0107714 0.00472431 0.00907068
-0.00113384 -0.0224877 -0.0143619
0.00075589 -0.0523454 -0.0391173
-0.00736993 -0.0502667 -0.0364717
0.0457314 0.0120942 0.0124722
-0.0338261 0.00510226 0.0427078
-0.0398732 -0.0368497 -0.0298577
0.0158737 0.0251334 -0.0185193
-0.0202201 0.000566918 0.0185193
0.0134171 0.0041574 -0.00264562
0.0126612 0.0041574 0.0062361
0.0292908 0.00982658 0.013984
0.0309915 0.00888171 0.0062361
-0.020787 0.0166296 -0.00377945
-0.0187083 -0.0179524 0.000944863
0.0255113 0.00283459 0.0200311
0.0228657 0.0370386 0.0151178
0.0183303 -0.0442196 0.00283459
0.0158737 -0.0521564 0.00226767
-0.0124722 -0.0504557 0.00661404
-0.0319364 0.0427078 -0.0183303
-0.000377945 0.0538572 -0.0281569
-0.0379835 0.0262672 -0.00377945
-0.0128501 0.0266451 0.0268341
0.00529123 -0.020976 -0.0145509
0.00869274 -0.0771008 -0.0597153
-0.00491329 -0.0714316 -0.0531013
-0.0300466 -0.0368497 -0.00888171
Vibration 12
0.013795 -0.00472431 0.00264562
0.0141729 -0.00491329 0.00736993
0.0149288 -0.00510226 0.0109604
0.0153068 -0.0041574 0.00793685
0.0154958 -0.0041574 0.00132281
0.0154958 -0.00377945 0.00434637
0.00680301 -0.00718096 -0.0115273
0.0154958 0.00302356 0.0153068
0.0154958 0.013795 0.0291018
0.00264562 0.00188973 -0.00604712
0.0132281 -0.00831479 0.0062361
-0.00529123 0.00226767 -0.00340151
-0.0326923 0.020976 -0.0234326
-0.0500777 0.034582 -0.0400622
-0.0315584 0.0238105 -0.0309915
-0.0462983 0.0287238 -0.0296687
0.0154958 -0.00302356 0.0103935
0.0217318 -0.000566918 0.0075589
0.0221098 0.00321253 0.00188973
0.0170075 0.0041574 -0.000944863
0.0109604 0.00245664 0.00226767
0.0109604 -0.00132281 0.00812582
0.0173855 0.00774788 -0.00869274
0.0548021 -0.0268341 0.0583925
-0.0117163 -0.0103935 -0.00321253
-0.0111494 -0.00226767 0
-0.013795 0.00264562 0.00396842
-0.0105825 -0.0115273 -0.0041574
-0.00434637 0.00075589 -0.00283459
-0.0183303 0.0115273 0.00907068
-0.0164406 -0.00075589 0.00359048
-0.0111494 -0.0234326 -0.00850377
-0.00812582 -0.02759 -0.0113384
-0.000188973 0.0132281 -0.00396842
-0.020409 -0.00774788 0.000566918
-0.0181414 -0.0147399 -0.00434637
0.013795 -0.00510226 0.00812582
0.00888171 -0.0162516 -0.020787
0.0372276 -0.0249444 0.0238105
0.00359048 -0.00548021 0.00604712
-0.0789905 0.0548021 -0.0612271
-0.0436527 0.0326923 -0.0419519
0.0264562 -0.00188973 0.0100155
0.0264562 0.00453534 0
0.0062361 0.00377945 -0.000188973
0.00661404 -0.00245664 0.0103935
0.0211649 0.00774788 -0.0100155
0.0115273 0.00944863 -0.0107714
0.0198421 0.00888171 -0.0120942
0.0805023 -0.0449755 0.0867384
0.0120942 -0.0723765 0.127368
0.143052 -0.00283459 0.0230547
-0.0226767 0.0272121 0.0164406
-0.0187083 0.00642507 0.0075589
-0.00907068 -0.0370386 -0.0151178
-0.00340151 -0.0434637 -0.0187083
-0.0170075 -0.0166296 -0.00396842
Vibration 13
0.000377945 -0.0062361 -0.0281569
0.000377945 -0.00642507 -0.0370386
-0.000566918 -0.00585815 -0.000566918
0.00075589 -0.00529123 0.0351489
0.000377945 -0.00529123 0.0251334
0.00113384 -0.00566918 -0.000566918
-0.00113384 -0.00642507 0.0308025
0.00113384 -0.00661404 0.00132281
0.000944863 -0.00831479 0.00302356
0 -0.0062361 -0.0300466
-0.0075589 -0.013984 -0.0241885
-0.00396842 -0.0168186 -0.00642507
0.00585815 -0.0105825 0.00377945
0.0107714 -0.000944863 -0.00359048
0.00812582 -0.000188973 -0.0202201
0.0119053 -0.0160627 0.027779
-0.000377945 -0.00642507 -0.00188973
0.00075589 -0.00491329 -0.00170075
0.000566918 -0.000944863 -0.00151178
-0.00170075 0.000566918 -0.00170075
-0.00302356 -0.00434637 -0.00472431
-0.00264562 -0.00736993 -0.00453534
-0.00264562 0.00850377 0.0020787
-0.0224877 0.020409 0.00434637
0.020409 -0.0272121 -0.00585815
0.00170075 0.00132281 0.00340151
-0.00188973 0.0128501 0.0103935
0.0141729 -0.034582 -0.0105825
0.00661404 0.0134171 -0.0247554
-0.0258892 0.0719986 0.0444086
-0.0308025 0.0710537 0.0546131
-0.00982658 -0.00472431 0.020976
0.013606 -0.0585815 -0.0119053
-0.0211649 0.0667073 -0.0565028
0.0041574 -0.00264562 -0.0222988
0.034393 -0.0143619 0.0247554
0.00132281 -0.00566918 -0.0663294
-0.00283459 -0.0096376 0.0332592
-0.0162516 -0.0188973 -0.0332592
-0.00831479 -0.0232436 -0.00113384
0.0181414 0.00472431 0.00453534
0.013795 0.00548021 -0.0241885
0.00188973 -0.00585815 -0.00188973
0.00188973 0.00132281 -0.000566918
-0.0041574 -0.00510226 -0.00661404
-0.00434637 -0.0105825 -0.00548021
-0.00793685 0.00888171 0.00359048
-0.00340151 0.0119053 0.00396842
0.00283459 0.0111494 0.0020787
-0.0268341 0.0175745 0.0170075
-0.0103935 0.0317474 -0.0366607
-0.0536682 0.0366607 0.0185193
-0.041196 0.120187 0.0642507
-0.0508336 0.126423 0.0867384
-0.0115273 -0.0179524 0.0228657
0.0306136 -0.112817 -0.0349599
0.0264562 -0.013984 0.0041574
Vibration 14
-0.00529123 0.00510226 0.0264562
-0.00453534 -0.00699199 0.0272121
0.0075589 -0.0143619 -0.00434637
0.0187083 -0.00661404 -0.0198421
0.0196532 0.0041574 -0.013984
0.0075589 0.0103935 0.00434637
0.0170075 0.00472431 -0.0292908
0.00869274 0.034771 -0.00604712
0.0105825 0.0668963 -0.0187083
-0.0103935 0.00812582 0.02759
-0.0111494 0.0215429 0.013984
-0.00321253 0.0181414 0.00340151
0.00566918 0 0.00699199
0.00453534 -0.0130391 0.0185193
-0.0041574 -0.00661404 0.0281569
0.0190862 -0.00548021 -0.00472431
0.00907068 -0.0308025 -0.0222988
0.0122832 -0.034582 -0.027779
0.0107714 -0.0222988 -0.0185193
0.00718096 -0.00529123 -0.00340151
0.00736993 -0.0228657 -0.0187083
0.00869274 -0.0357158 -0.0281569
0.00075589 0.0393063 0.0368497
-0.000566918 -0.0145509 -0.0294797
-0.0143619 -0.0100155 -0.00151178
-0.00774788 0.00434637 0.00699199
-0.0102045 0.00642507 0.0100155
-0.00888171 -0.0062361 -0.000377945
-0.00529123 -0.000377945 0.000188973
-0.013606 0.0192752 0.0166296
-0.0117163 0.0149288 0.0124722
-0.00831479 -0.00604712 -0.000944863
-0.00642507 -0.0162516 -0.00718096
0.00188973 0.0117163 0.00075589
-0.0215429 0.000377945 0.0270231
-0.0255113 -0.0177634 -0.00774788
-0.0141729 -0.0128501 0.0459203
0.020409 -0.000188973 -0.0417629
-0.0170075 0.0359048 0.0122832
-0.00396842 0.0283459 -0.00680301
0.0111494 -0.0281569 0.020787
-0.00604712 -0.0151178 0.0353379
0.0153068 -0.0430858 -0.034204
0.0119053 -0.0211649 -0.0185193
0.00566918 -0.0219208 -0.0188973
0.00869274 -0.0444086 -0.0359048
-0.0417629 0.0383614 0.0510226
0.00604712 0.0633058 0.0557469
0.0319364 0.0548021 0.0394953
0.00434637 -0.00982658 -0.047999
0.00170075 -0.0124722 -0.0372276
-0.020598 -0.0272121 -0.0219208
-0.0164406 0.0336371 0.0251334
-0.0128501 0.0272121 0.0192752
-0.00642507 -0.0132281 -0.00604712
-0.00283459 -0.0319364 -0.0162516
-0.0200311 -0.0171965 0.00396842
Vibration 15
-0.00132281 -0.00377945 -0.0241885
-0.000188973 -0.0132281 -0.00396842
0.00736993 -0.0177634 0.0304246
0.013795 -0.0132281 0.034393
0.013984 -0.00434637 0.00340151
0.00718096 0 -0.0117163
0.0119053 -0.00396842 -0.0181414
0.00774788 0.0255113 0.00566918
0.00888171 0.0640617 0.0317474
-0.0120942 0.00188973 -0.0376055
-0.0296687 0.00188973 -0.041196
-0.020598 -0.0041574 -0.020787
0.00566918 -0.00831479 0.00170075
0.0062361 0.00245664 -0.00793685
-0.00170075 0.00604712 -0.0266451
0.0377945 -0.0289128 0.0457314
0.0075589 -0.0124722 0.0377945
0.0251334 -0.00075589 0.0330702
0.0262672 0.0111494 0.0134171
0.00925966 0.00982658 -0.00188973
-0.0100155 0.00585815 0.0096376
-0.00944863 -0.00566918 0.0298577
0.0115273 0.0134171 -0.0385504
-0.0236216 0.0222988 -0.00113384
-0.0124722 0.0102045 0.00226767
-0.00453534 0.000566918 -0.00661404
-0.00869274 0.00529123 -0.000188973
-0.0103935 0.0100155 0.00226767
-0.00699199 -0.000944863 0.00831479
-0.00566918 -0.00907068 -0.00812582
-0.0020787 -0.0247554 -0.0175745
-0.00340151 -0.0200311 -0.0158737