[Molden Format]
[FREQ]
16.9
24.6
29.1
33.0
43.1
50.3
63.1
71.6
77.0
84.9
107.0
117.2
124.8
133.0
146.7
153.6
173.6
181.5
187.5
216.0
237.8
251.4
256.0
269.6
274.9
287.6
291.6
308.7
310.9
323.1
336.3
353.5
358.2
368.1
385.7
401.5
406.8
415.1
455.0
470.5
480.2
501.5
506.4
518.4
534.5
542.9
551.6
564.1
571.9
582.9
594.0
612.0
614.8
628.7
635.8
654.9
680.0
681.2
686.5
704.6
729.0
738.4
764.0
789.5
821.0
827.6
839.6
864.5
882.1
883.1
890.8
898.2
904.5
940.2
946.0
960.8
975.3
1008.7
1009.3
1010.9
1016.5
1017.0
1018.9
1033.7
1043.3
1047.6
1075.7
1081.7
1082.7
1109.2
1123.3
1128.0
1167.6
1178.9
1179.1
1181.3
1187.2
1197.3
1208.1
1224.5
1236.2
1260.6
1262.6
1266.1
1267.8
1274.6
1282.1
1286.6
1292.3
1299.8
1300.9
1318.9
1323.8
1331.6
1340.2
1341.8
1349.2
1350.0
1362.4
1365.4
1373.3
1375.5
1387.4
1397.6
1410.0
1426.4
1491.3
1520.2
1527.9
1535.9
1539.0
1569.7
1579.2
1588.3
1627.2
1694.7
1698.2
1698.3
1702.3
1707.0
1716.7
1723.5
1764.4
2451.4
2650.9
2653.9
2666.7
2672.8
2724.9
2733.0
2741.7
2744.1
2744.7
2745.1
2749.8
2750.0
2757.8
2758.8
2762.4
2766.0
2766.3
2767.2
2769.5
2771.0
2779.6
       
[FR-COORD]
C -2.79113 -2.63995 0.518919
C -0.116596 -2.63995 0.518919
C 1.25383 -0.415173 0.518919
N 0.0238105 1.84966 0.357914
C -2.69607 1.96059 0.447109
C -4.08767 -0.372276 0.491707
N -3.57158 4.27191 0.457125
C -6.75464 -0.236027 0.499833
N -8.94181 -0.146454 0.50758
C -4.1043 -5.07637 0.588272
C -3.56497 -6.90487 -1.25289
C -4.78724 -9.21771 -1.21302
C -6.55659 -9.69845 0.710915
C -7.10102 -7.9085 2.56946
C -5.86609 -5.58773 2.4848
O -7.60293 -12.0319 0.538005
C 4.02493 -0.556146 0.676333
C 5.23284 -0.0793685 2.97405
C 7.84482 -0.324088 3.13846
C 9.24945 -1.04029 1.01724
C 8.02415 -1.52709 -1.27084
C 5.41085 -1.29465 -1.44337
C 12.047 -1.28823 1.21887
C -9.52346 -12.6551 2.31076
C -1.5131 6.09663 0.394953
C 1.05957 4.49377 0.591295
C 2.9372 5.19278 -1.39915
C 2.19813 6.57284 -3.51905
C -1.88066 7.7029 -2.01407
C 5.50383 4.64211 -1.14121
C 7.20118 5.25249 -3.05909
C 6.36441 6.45946 -5.24815
C 3.84087 7.16773 -5.48285
O -0.195965 7.63638 -3.71199
O 2.22515 4.62473 2.93701
O -1.57528 7.68986 2.50219
H 0.880045 -4.44086 0.582791
H 1.18599 5.63951 4.13567
H -2.18906 -6.49045 -2.73368
H -4.41421 -10.6554 -2.63107
H -8.46276 -8.28418 4.05403
H -6.28107 -4.1608 3.91854
H 4.13056 0.509848 4.6166
H 8.79649 0.047999 4.92274
H 9.10961 -2.0906 -2.92265
H 4.45012 -1.67486 -3.22614
H 12.9044 0.371898 2.1301
H 12.9733 -1.51367 -0.624176
H 12.5663 -2.94665 2.36348
H -10.079 -14.5607 1.70151
H -11.1243 -11.3527 2.15769
H -8.76228 -12.7041 4.2328
H 6.19112 3.75772 0.596586
H 9.19238 4.78668 -2.83761
H 7.69629 6.89013 -6.75842
H 3.15754 8.19253 -7.12994
H -3.33763 7.82158 3.14318

[FR-NORM-COORD]
Vibration 1
-0.00699199 -0.000377945 -0.013795
-0.00680301 -0.000377945 -0.0147399
-0.00699199 -0.000377945 -0.0145509
-0.00661404 0 -0.0122832
-0.00699199 -0.000377945 -0.0177634
-0.00699199 -0.000566918 -0.0188973
-0.00699199 -0.000566918 -0.0190862
-0.00699199 -0.000944863 -0.0232436
-0.00699199 -0.000944863 -0.0272121
-0.00604712 -0.000566918 -0.00434637
-0.00680301 -0.00831479 0.00283459
-0.00226767 -0.0103935 0.0166296
0.00302356 -0.00472431 0.0228657
0.0020787 0.00377945 0.0141729
-0.00264562 0.00566918 0.000566918
0.00925966 -0.00869274 0.0379835
-0.00661404 -0.00151178 -0.0190862
-0.00453534 -0.0272121 -0.0149288
-0.00472431 -0.0309915 -0.0196532
-0.00699199 -0.00888171 -0.0287238
-0.00888171 0.0183303 -0.0332592
-0.00888171 0.0219208 -0.0287238
-0.00699199 -0.013606 -0.0332592
0.0198421 -0.00699199 0.0498888
-0.00661404 -0.000566918 -0.0113384
-0.00774788 -0.000944863 0.0020787
0.00699199 0.00699199 0.0190862
0.0211649 0.0100155 0.0162516
0.00661404 -0.00226767 -0.0145509
0.0062361 0.0119053 0.0391173
0.020409 0.0198421 0.0540462
0.0357158 0.0238105 0.0504557
0.0360938 0.0188973 0.0313695
0.0194642 0.00321253 -0.00170075
-0.0253223 -0.00869274 0.0113384
-0.0168186 0.000944863 -0.0128501
-0.00680301 -0.000377945 -0.0158737
-0.0326923 -0.0102045 0.00604712
-0.0105825 -0.0126612 -0.00188973
-0.00226767 -0.0166296 0.0228657
0.00491329 0.00888171 0.0181414
-0.00321253 0.0120942 -0.00604712
-0.00302356 -0.0440306 -0.00793685
-0.00283459 -0.0515895 -0.0162516
-0.0105825 0.0364717 -0.0406291
-0.0105825 0.0430858 -0.0323143
-0.00396842 -0.0190862 -0.0258892
-0.00944863 -0.00566918 -0.0353379
-0.0075589 -0.0198421 -0.0421409
0.0285349 -0.0147399 0.0655735
0.0119053 -0.0171965 0.0462983
0.0270231 0.0109604 0.0474321
-0.00661404 0.00888171 0.0425188
0.0194642 0.0226767 0.068975
0.0472432 0.0304246 0.062361
0.0474321 0.0211649 0.0281569
-0.0202201 0.00170075 -0.0219208
Vibration 2
0.00642507 -0.00510226 0.0228657
0.00642507 -0.00151178 0.0166296
0.00302356 0.000566918 0.0107714
-0.000566918 -0.00151178 0.0111494
-0.00075589 -0.00491329 0.0147399
0.00302356 -0.00680301 0.0264562
-0.00377945 -0.00604712 0.0020787
0.00283459 -0.0103935 0.0379835
0.00283459 -0.013606 0.048188
0.00718096 -0.00566918 0.0183303
0.00453534 0.00151178 0.0103935
-0.00434637 0.00604712 -0.0041574
-0.0107714 0.00321253 -0.0109604
-0.00377945 -0.00642507 0.000377945
0.00529123 -0.0107714 0.0153068
-0.0245664 0.0107714 -0.0292908
0.0041574 0.00699199 0.000188973
0.0109604 -0.00132281 -0.00170075
0.0122832 0.00774788 -0.0130391
0.00718096 0.0258892 -0.0226767
0.000377945 0.0336371 -0.020598
-0.00132281 0.0241885 -0.00925966
0.00925966 0.0385504 -0.0351489
-0.0442196 0.0164406 -0.048377
-0.00585815 -0.00396842 -0.0153068
-0.00453534 0.000566918 0.0041574
0.00396842 -0.00529123 0.0105825
0.00831479 -0.0281569 -0.00566918
-0.00359048 -0.0323143 -0.034771
0.00566918 0.0124722 0.0313695
0.0134171 0.00566918 0.0359048
0.0194642 -0.0181414 0.020598
0.0162516 -0.0357158 -0.00113384
0.00302356 -0.0438416 -0.0279679
-0.0168186 0.0117163 0.00982658
-0.0100155 0.0190862 -0.0332592
0.00907068 0 0.0151178
-0.0211649 0.020787 -0.00170075
0.00831479 0.00434637 0.0147399
-0.0075589 0.0122832 -0.0115273
-0.00585815 -0.0103935 -0.00245664
0.0100155 -0.0177634 0.0236216
0.0147399 -0.0143619 0.00548021
0.0177634 0.00113384 -0.0145509
-0.00377945 0.0474321 -0.0279679
-0.00661404 0.0306136 -0.00774788
0.00548021 0.0442196 -0.0417629
0.00188973 0.0398732 -0.0389284
0.0222988 0.0428968 -0.034771
-0.062172 0.0287238 -0.0699199
-0.0281569 0.0362827 -0.0464873
-0.0570697 -0.0102045 -0.0438416
-0.000377945 0.0308025 0.0430858
0.0147399 0.0187083 0.0515895
0.0258892 -0.0239995 0.0247554
0.0202201 -0.0548021 -0.0143619
-0.0109604 0.0239995 -0.0368497
Vibration 3
-0.013795 0.0164406 0.00283459
-0.013984 0.0124722 -0.00340151
-0.0107714 0.0103935 0.00170075
-0.00793685 0.0119053 0.00718096
-0.00793685 0.0160627 0.0109604
-0.0111494 0.0179524 0.0173855
-0.00377945 0.0177634 0.00377945
-0.0107714 0.020787 0.0377945
-0.0105825 0.0226767 0.0565028
-0.0115273 0.0147399 -0.00774788
-0.0179524 0.0313695 -0.0264562
-0.00302356 0.0238105 -0.0319364
0.0190862 -0.00151178 -0.0177634
0.020409 -0.0156847 -0.00377945
0.00472431 -0.00680301 0.00113384
0.0385504 -0.0100155 -0.020787
-0.0111494 0.00377945 0.00170075
-0.0103935 -0.000377945 0.0020787
-0.0119053 -0.013984 0.00434637
-0.013984 -0.0230547 0.00604712
-0.0145509 -0.0162516 0.00472431
-0.0132281 -0.00283459 0.00264562
-0.0158737 -0.0419519 0.00888171
0.0776677 -0.0464873 0.00850377
-0.000377945 0.013795 -0.00888171
-0.00340151 0.0103935 0.000944863
0.00132281 -0.00113384 0.00151178
0.00566918 -0.0132281 -0.00774788
0.00377945 -0.00226767 -0.020598
0.000188973 -0.0020787 0.00944863
0.00396842 -0.0147399 0.00850377
0.00869274 -0.0262672 0.000377945
0.00944863 -0.0257003 -0.00831479
0.00604712 -0.013795 -0.0177634
-0.0075589 0.0160627 0.00264562
0.00283459 0.0285349 -0.0200311
-0.0164406 0.0107714 -0.0109604
-0.00642507 0.0247554 -0.00377945
-0.0332592 0.0502667 -0.0355268
-0.00680301 0.0359048 -0.0453534
0.0338261 -0.0332592 0.00396842
0.00604712 -0.0179524 0.0124722
-0.00888171 0.00604712 0.000944863
-0.0113384 -0.0181414 0.00491329
-0.0160627 -0.0221098 0.00585815
-0.013795 0.00170075 0.00188973
-0.0062361 -0.0536682 0.020976
-0.0145509 -0.0364717 0.00888171
-0.0287238 -0.0529123 -0.000944863
0.0980768 -0.0532903 0.0111494
0.0548021 -0.0712427 0.0385504
0.109226 -0.0410071 -0.00377945
-0.00377945 0.00680301 0.0156847
0.00302356 -0.0156847 0.0145509
0.0117163 -0.0362827 0.000188973
0.0132281 -0.0351489 -0.0154958
0.00321253 0.0357158 -0.020598
Vibration 4
-0.0062361 0.00907068 0.0171965
-0.00566918 0.00944863 0.0260782
-0.00453534 0.00850377 0.0181414
-0.00321253 0.00850377 0.013606
-0.00321253 0.00944863 0.00982658
-0.00472431 0.0100155 0.00718096
-0.0020787 0.0100155 0.00661404
-0.00453534 0.013984 -0.0100155
-0.00453534 0.0187083 -0.0249444
-0.00151178 0.00680301 0.0119053
0.0519675 -0.0105825 0.0440306
0.0655735 -0.0173855 0.0398732
0.0217318 -0.00680301 0.00245664
-0.034582 0.0109604 -0.0313695
-0.0449755 0.0168186 -0.0258892
0.0419519 -0.0158737 0.00377945
-0.00396842 0.00359048 0.00699199
0.00925966 -0.00132281 0.00075589
0.00907068 -0.0126612 -0.0124722
-0.00453534 -0.0185193 -0.0192752
-0.0177634 -0.0111494 -0.013795
-0.0173855 -0.000188973 -0.00075589
-0.00491329 -0.0338261 -0.0330702
-0.00396842 -0.00491329 -0.0419519
-0.00132281 0.00907068 0.00472431
-0.00188973 0.00850377 0.00736993
-0.00283459 0.00151178 0.00396842
-0.00359048 -0.00453534 0.000377945
-0.000377945 0.00548021 0.00226767
-0.00340151 -0.00113384 0.00302356
-0.00510226 -0.0103935 -0.00132281
-0.00604712 -0.0170075 -0.00453534
-0.00529123 -0.013984 -0.00377945
-0.0020787 -0.000944863 0.000566918
0 0.0134171 0.00585815
-0.00113384 0.0120942 0.00245664
-0.00566918 0.00982658 0.0360938
-0.000566918 0.0128501 0.00585815
0.0844708 -0.0187083 0.0716206
0.109037 -0.0309915 0.0651955
-0.068975 0.0196532 -0.0606602
-0.0873053 0.0289128 -0.0498888
0.0198421 0.00302356 0.0062361
0.0196532 -0.0173855 -0.0170075
-0.0281569 -0.0145509 -0.0196532
-0.0279679 0.00510226 0.00377945
0.00812582 -0.0428968 -0.0287238
-0.0143619 -0.0294797 -0.0383614
-0.00850377 -0.0421409 -0.0436527
0.0213539 -0.0143619 -0.0359048
-0.00566918 -0.013795 -0.0999665
-0.0561249 0.0198421 -0.020598
-0.00264562 0.00396842 0.00529123
-0.00548021 -0.0126612 -0.00226767
-0.00736993 -0.0245664 -0.00793685
-0.00585815 -0.0187083 -0.00661404
-0.00132281 0.0141729 0.00132281
Vibration 5
-0.0115273 0.00453534 -0.00604712
-0.0113384 -0.00283459 0.00491329
-0.00585815 -0.00642507 0.0109604
-0.000377945 -0.00302356 0.0145509
0 0.00434637 0.00604712
-0.00604712 0.0075589 -0.00944863
0.00680301 0.00680301 0.0120942
-0.00566918 0.013984 -0.0315584
-0.00548021 0.0202201 -0.0521564
-0.0168186 0.00718096 -0.0126612
-0.0175745 0.00812582 -0.013795
-0.0130391 0.00585815 -0.0107714
-0.00699199 0.00226767 -0.00604712
-0.0119053 0.0041574 -0.00944863
-0.0171965 0.00699199 -0.0130391
0.00359048 -0.00302356 0.00113384
-0.00585815 -0.00585815 0.00850377
-0.00226767 -0.00661404 0.00680301
0.00075589 0.0175745 -0.00396842
0 0.0427078 -0.0130391
-0.00453534 0.0332592 -0.00850377
-0.00736993 0.00888171 0.00226767
0.00472431 0.0839038 -0.0283459
0.0338261 -0.0211649 0.027401
0.0124722 0.00132281 0.0187083
0.0075589 -0.00604712 0.0166296
0.0062361 -0.0147399 0.0124722
0.00340151 -0.0266451 0.00566918
0.0166296 0.00321253 0.0192752
0.00566918 -0.0173855 0.0096376
0.000566918 -0.0387394 -0.00170075
-0.00396842 -0.0561249 -0.00944863
-0.00226767 -0.0491329 -0.00585815
0.00888171 -0.0132281 0.0120942
0.0107714 -0.0105825 0.0149288
0.0154958 -0.00302356 0.0217318
-0.0162516 -0.00548021 0.00585815
0.0124722 -0.0124722 0.0181414
-0.020409 0.0100155 -0.0156847
-0.0126612 0.00585815 -0.0107714
-0.0115273 0.00359048 -0.00925966
-0.020598 0.00850377 -0.0154958
-0.00151178 -0.0230547 0.0130391
0.00377945 0.0198421 -0.00604712
-0.00566918 0.0472432 -0.013984
-0.0107714 0.00396842 0.00510226
-0.0149288 0.100155 -0.0393063
-0.00264562 0.0914627 -0.0330702
0.0362827 0.0959981 -0.0255113
0.0519675 -0.0311805 0.0425188
0.0149288 -0.0428968 0.0402512
0.0568808 -0.00264562 0.0187083
0.00907068 -0.00340151 0.0154958
0 -0.0425188 -0.00453534
-0.00831479 -0.0752111 -0.0187083
-0.00491329 -0.0602823 -0.0115273
0.0153068 0.00226767 0.0196532
Vibration 6
-0.0153068 -0.00302356 -0.0119053
-0.0143619 -0.0096376 -0.0285349
-0.00812582 -0.0141729 -0.0251334
-0.00170075 -0.0100155 -0.0224877
-0.00075589 -0.00226767 -0.00453534
-0.00793685 0.00170075 0.00736993
0.0062361 0.000377945 0.00170075
-0.00718096 0.0154958 0.0472432
-0.00642507 0.0292908 0.0844708
-0.0170075 -0.00188973 -0.0096376
0.0100155 -0.0171965 0.0124722
0.0192752 -0.0217318 0.0188973
-0.00188973 -0.0117163 0.0020787
-0.0338261 0.00491329 -0.0232436
-0.0400622 0.00812582 -0.0283459
0.013606 -0.0194642 0.013795
-0.00888171 -0.0143619 -0.0145509
-0.0241885 -0.0126612 -0.00661404
-0.0234326 0.00680301 0.00642507
-0.00736993 0.0241885 0.0111494
0.00736993 0.0147399 0.00529123
0.0062361 -0.00453534 -0.00774788
-0.00529123 0.0561249 0.0232436
-0.00264562 -0.0128501 -0.00151178
0.0117163 -0.00604712 -0.00510226
0.00718096 -0.0145509 -0.0147399
0.00850377 -0.0075589 -0.0113384
0.0124722 0.00869274 -0.0020787
0.0102045 -0.000944863 -0.00132281
0.00793685 -0.0111494 -0.0128501
0.0115273 0.00434637 -0.00453534
0.0158737 0.0236216 0.00434637
0.0160627 0.0253223 0.00585815
0.0117163 0.0075589 0
0.00907068 -0.027779 -0.0145509
0.0245664 -0.0075589 -0.00321253
-0.0183303 -0.0122832 -0.0374166
0.0173855 -0.0221098 -0.0122832
0.0255113 -0.0255113 0.0243775
0.0430858 -0.0334482 0.0372276
-0.0523454 0.0143619 -0.0377945
-0.0627389 0.0179524 -0.0444086
-0.0368497 -0.0241885 -0.0107714
-0.0353379 0.0105825 0.0119053
0.0198421 0.0241885 0.0102045
0.0179524 -0.00982658 -0.0128501
-0.0279679 0.0725655 0.0149288
0.00396842 0.0542351 0.0281569
0.00944863 0.0702978 0.0366607
0.0190862 -0.0243775 0.0147399
-0.0105825 -0.0266451 -0.0362827
-0.0255113 0.0158737 0.00831479
0.00548021 -0.0255113 -0.0190862
0.0109604 0.00170075 -0.00510226
0.0185193 0.0374166 0.0107714
0.0188973 0.0391173 0.0134171
0.02759 -0.00359048 0.00434637
Vibration 7
0.00869274 0.00302356 -0.0264562
0.00850377 0.00661404 -0.0406291
0.00434637 0.00907068 -0.0241885
-0.000566918 0.0075589 -0.00170075
-0.000188973 0.00377945 -0.00245664
0.00434637 0.00113384 -0.00907068
-0.00264562 0.00302356 0.00510226
0.00434637 -0.00264562 0.00661404
0.0041574 -0.00510226 0.020409
0.0120942 0.00151178 -0.0185193
0.0120942 -0.00831479 -0.00850377
0.0120942 -0.00831479 0.00453534
0.0107714 0.00302356 0.0062361
0.0130391 0.0120942 -0.00188973
0.0141729 0.0105825 -0.013795
0.0075589 0.00359048 0.0190862
0.00434637 0.0134171 -0.0177634
-0.0122832 -0.0315584 0.000377945
-0.0145509 -0.0417629 0.0168186
0.000566918 -0.00377945 0.013795
0.0183303 0.0521564 -0.0075589
0.0198421 0.0599043 -0.0234326
-0.00283459 -0.0247554 0.0359048
-0.0175745 0.0298577 0.00132281
-0.00396842 0.00548021 0.0111494
-0.00340151 0.00774788 0.0102045
-0.00453534 0.0041574 0.00888171
-0.0105825 -0.0124722 0.000188973
-0.00188973 0.0062361 0.0113384
-0.00491329 0.00264562 0.0075589
-0.0117163 -0.020787 -0.00604712
-0.0188973 -0.0442196 -0.0164406
-0.0177634 -0.0387394 -0.0134171
-0.00736993 -0.0041574 0.00604712
-0.00472431 0.00188973 0.0105825
-0.00831479 0.00113384 0.013984
0.0120942 0.00793685 -0.0597153
-0.00736993 -0.0041574 0.013606
0.0117163 -0.0162516 -0.0111494
0.0120942 -0.0160627 0.0124722
0.0143619 0.0196532 0.00132281
0.0170075 0.0168186 -0.0190862
-0.0239995 -0.0610381 0.00302356
-0.027779 -0.0806913 0.0319364
0.0306136 0.0874943 -0.0115273
0.0334482 0.100722 -0.0394953
0.00075589 -0.0357158 0.0527234
0.0113384 -0.020976 0.0427078
-0.0239995 -0.034771 0.0308025
-0.0279679 0.0317474 0.00529123
-0.00453534 0.0432747 -0.0222988
-0.0383614 0.0330702 0.00982658
-0.0020787 0.0173855 0.0141729
-0.0117163 -0.0219208 -0.00925966
-0.0245664 -0.0665184 -0.027779
-0.0215429 -0.0546131 -0.0217318
-0.0096376 0 0.0103935
Vibration 8
0.00680301 -0.00132281 -0.0311805
0.00699199 0.000944863 -0.0436527
0.00566918 0.0020787 -0.0215429
0.00264562 0.00245664 0.00510226
0.00283459 -0.00075589 0.00869274
0.00510226 -0.00170075 -0.00718096
0.000188973 -0.00188973 0.0241885
0.00510226 -0.000377945 0.00226767
0.00529123 0.00283459 0.0100155
0.00472431 0.000188973 -0.0294797
0.00774788 -0.0145509 -0.013606
0.00340151 -0.0122832 -0.000188973
-0.00472431 0.00529123 -0.00321253
-0.0103935 0.0213539 -0.020409
-0.00491329 0.0173855 -0.0330702
-0.0075589 0.00529123 0.0143619
0.00548021 0.0041574 -0.0183303
0.00529123 0.0495108 -0.0272121
0.00472431 0.048188 -0.0200311
0.00472431 -0.00264562 -0.00302356
0.00529123 -0.047999 0.00642507
0.0062361 -0.0432747 -0.00132281
0.00321253 -0.0107714 0.00604712
0.000944863 0.0171965 0.0279679
-0.00170075 0.000188973 0.0154958
-0.000377945 0.00226767 0.0168186
0.000188973 0.00548021 0.0192752
-0.0096376 -0.0219208 0.00472431
-0.0096376 -0.0200311 0.00264562
0.00434637 0.0308025 0.0289128
0.00151178 0.02759 0.0251334
-0.00718096 -0.00510226 0.0105825
-0.0132281 -0.0304246 -0.00075589
-0.0158737 -0.0372276 -0.00321253
-0.00699199 -0.00226767 0.0202201
0.000566918 0.0107714 0.00661404
0.00850377 0.00113384 -0.0646286
-0.00585815 0.00359048 0.0162516
0.013795 -0.0285349 -0.0119053
0.00661404 -0.0239995 0.0126612
-0.0185193 0.0366607 -0.0238105
-0.00718096 0.0283459 -0.0442196
0.00529123 0.0850377 -0.0394953
0.00396842 0.0850377 -0.027401
0.00529123 -0.0869274 0.0196532
0.00699199 -0.0778567 0.00566918
0.0075589 -0.00944863 -0.000566918
0.00736993 -0.0243775 0.00982658
-0.00642507 -0.00680301 0.0164406
0.00718096 0.00793685 0.0515895
-0.00491329 0.00888171 0.0175745
0.00661404 0.0423299 0.0264562
0.00925966 0.0519675 0.0374166
0.00566918 0.0493218 0.0328812
-0.00925966 -0.0103935 0.00718096
-0.020598 -0.0555579 -0.0132281
0.00132281 0.0120942 0.00888171
Vibration 9
-0.0062361 0.00510226 -0.013984
-0.00680301 0.00472431 -0.0166296
-0.00661404 0.00434637 -0.00793685
-0.00566918 0.00491329 -0.00434637
-0.0062361 0.00510226 -0.0183303
-0.00642507 0.00491329 -0.0128501
-0.00566918 0.00548021 -0.0296687
-0.00661404 0.00283459 0.00434637
-0.00661404 -0.000566918 0.0226767
0.00113384 0.00132281 -0.00548021
-0.0075589 0.00548021 -0.0122832
0.00585815 -0.00132281 -0.000566918
0.0264562 -0.0105825 0.0158737
0.0391173 -0.0162516 0.0249444
0.0260782 -0.0096376 0.0143619
0.0370386 -0.0164406 0.0268341
-0.0075589 -0.00170075 -0.00396842
-0.00434637 0.0224877 -0.0107714
-0.00359048 0.027401 -0.013606
-0.00718096 0.00453534 -0.00812582
-0.0117163 -0.0309915 0.00188973
-0.0119053 -0.0332592 0.00377945
-0.00529123 0.020598 -0.0141729
-0.0353379 0.0239995 -0.0372276
-0.00510226 0.00566918 -0.00359048
-0.00604712 0.00529123 0.00434637
0.00170075 0.00283459 0.0107714
0.0122832 0.0100155 0.0115273
0.0162516 0.0296687 0.00982658
-0.0020787 -0.0149288 0.0100155
0.000188973 -0.0394953 0.0041574
0.00736993 -0.0385504 0.00188973
0.0145509 -0.0105825 0.00736993
0.0232436 0.0351489 0.0166296
-0.0151178 0.00188973 0.00850377
-0.0222988 -0.0120942 0.0102045
-0.00680301 0.00434637 -0.0213539
-0.0243775 -0.00812582 0.00925966
-0.0255113 0.0141729 -0.0264562
-0.00113384 0.00151178 -0.00529123
0.0602823 -0.0268341 0.0417629
0.0357158 -0.0134171 0.020787
-0.00170075 0.0398732 -0.0151178
-0.000188973 0.0502667 -0.0200311
-0.0149288 -0.054991 0.00793685
-0.0154958 -0.0582036 0.0111494
-0.0107714 0.0372276 -0.0389284
-0.0102045 0.00113384 -0.0141729
0.00699199 0.0385504 0.00604712
-0.0597153 0.0383614 -0.0595264
-0.00113384 0.0606602 -0.0833369
-0.0959981 0.00188973 -0.013606
-0.00548021 -0.00869274 0.013795
-0.0041574 -0.0591484 0.00188973
0.00793685 -0.0597153 -0.00359048
0.0224877 -0.00529123 0.00736993
-0.027401 -0.0170075 -0.00340151
Vibration 10
-0.0154958 0.00718096 0.000377945
-0.0151178 -0.00170075 -0.0041574
-0.00907068 -0.0062361 -0.00850377
-0.00377945 -0.00302356 -0.00321253
-0.00302356 0.00680301 0.0211649
-0.0100155 0.0100155 0.00548021
0.0075589 0.0105825 0.0500777
-0.0096376 0.0164406 -0.0200311
-0.0096376 0.0228657 -0.0506447
-0.013795 0.00604712 0.000188973
-0.0245664 0.0160627 -0.0132281
-0.00548021 0.00642507 -0.00359048
0.0232436 -0.0122832 0.0181414
0.0325033 -0.0213539 0.0294797
0.0132281 -0.0109604 0.0202201
0.047999 -0.0247554 0.0321253
-0.00944863 -0.0062361 -0.00907068
-0.0168186 -0.00869274 -0.00434637
-0.0175745 -0.0062361 0.00302356
-0.0107714 0 0.00529123
-0.00321253 0.00491329 0.000377945
-0.00321253 0.00170075 -0.00718096
-0.0113384 0.00245664 0.0149288
-0.0321253 0.0115273 -0.0419519
0.0160627 0.00113384 0.0141729
0.0096376 -0.0103935 -0.00188973
0.00396842 -0.00869274 -0.00642507
-0.00661404 -0.0188973 -0.00907068
-0.00680301 -0.0298577 -0.0041574
0.00850377 0.0128501 -0.00302356
0.00718096 0.0391173 0.0041574
0.000188973 0.0351489 0.00453534
-0.00812582 0.0020787 -0.0041574
-0.0181414 -0.0455424 -0.0149288
0.0200311 -0.0226767 -0.00529123
0.0514005 0.0243775 -0.00396842
-0.020787 -0.00491329 -0.00642507
0.0400622 -0.00283459 -0.00529123
-0.0476211 0.0315584 -0.0302356
-0.0130391 0.0134171 -0.0124722
0.0570697 -0.0381725 0.0478101
0.020598 -0.0171965 0.0283459
-0.0226767 -0.013795 -0.00642507
-0.0230547 -0.00925966 0.00661404
0.00264562 0.0109604 0.0020787
0.00245664 0.00510226 -0.0107714
-0.0153068 0.00774788 0.00925966
-0.00548021 -0.00642507 0.0190862
-0.013795 0.00850377 0.0251334
-0.0470542 0.0232436 -0.0648176
-0.00113384 0.0428968 -0.0984547
-0.103368 -0.00566918 -0.013984
0.0117163 0.00869274 -0.0062361
0.0120942 0.062361 0.00888171
0.000566918 0.0572587 0.0111494
-0.0160627 -0.00604712 -0.00585815
0.0602823 0.0408181 0.0173855
Vibration 11
-0.00170075 -0.00170075 -0.00188973
-0.00151178 -0.00264562 0.00151178
-0.000944863 -0.00302356 0.00226767
-0.000188973 -0.00283459 -0.00321253
0 -0.00170075 -0.00472431
-0.00075589 -0.00132281 -0.00340151
0.00132281 -0.00132281 -0.00566918
-0.00075589 0.000377945 0.00075589
-0.000566918 0.0020787 0.00585815
-0.00321253 -0.00113384 -0.00188973
-0.00680301 -0.000566918 -0.00340151
-0.00566918 -0.00113384 -0.00132281
-0.00132281 -0.00245664 0.00245664
-0.000377945 -0.00170075 0.0020787
-0.000944863 -0.00151178 0.000188973
0.00434637 -0.00548021 0.00831479
-0.000944863 0.00188973 0.00491329
-0.000377945 0.0145509 0.00151178
0.00132281 0.0224877 0.000377945
0.000566918 0.0179524 0.00226767
-0.000566918 0.00812582 0.0041574
-0.00075589 -0.000566918 0.00548021
-0.000944863 -0.00510226 -0.00585815
-0.00869274 0.00170075 -0.00340151
0.00264562 -0.00226767 -0.00075589
0.00188973 -0.00377945 -0.00188973
0.00226767 -0.00226767 -0.00113384
0.0020787 -0.00264562 -0.00132281
0.00453534 0.00170075 0.00188973
0.00302356 0.000944863 -0.000566918
0.00283459 0.00188973 -0.000566918
0.0020787 -0.00113384 -0.00170075
0.00151178 -0.00321253 -0.0020787
0.00321253 0 0.000566918
0.00188973 -0.00661404 -0.00170075
0.00188973 -0.00736993 0.00302356
-0.00226767 -0.00302356 0.00396842
0.00245664 -0.00718096 -0.00075589
-0.0100155 0.000188973 -0.0062361
-0.00774788 -0.000944863 -0.0020787
0.00132281 -0.00188973 0.00359048
0.000566918 -0.00151178 0.00075589
0 0.0177634 0.000566918
0.000377945 0.0308025 -0.000944863
0.000566918 0.00529123 0.00585815
-0.00151178 -0.00925966 0.00793685
-0.0153068 -0.237728 0.427645
0.0292908 0.46166 -0.048566
-0.020787 -0.295553 -0.414984
0.00340151 -0.00491329 0.0062361
-0.0111494 -0.0041574 -0.027779
-0.0260782 0.0185193 0.00377945
0.00434637 0.00340151 0.000188973
0.00340151 0.00491329 0.000944863
0.00170075 -0.00151178 -0.0020787
0.000566918 -0.00472431 -0.00264562
0.00151178 -0.00736993 0.00170075
Vibration 12
0.0062361 -0.00510226 -0.0234326
0.00585815 -0.00340151 -0.00113384
0.00718096 -0.00283459 0.0311805
0.00850377 -0.00170075 0.0359048
0.00812582 -0.00604712 0.0105825
0.00718096 -0.00472431 -0.00491329
-0.000566918 -0.00944863 -0.00434637
0.00774788 0.00604712 0.00434637
0.00850377 0.0222988 0.0194642
-0.0020787 -0.00113384 -0.041385
-0.0185193 -0.00434637 -0.0421409
-0.0175745 -0.00566918 -0.0238105
0.00113384 -0.00170075 -0.00585815
0.00075589 0.0119053 -0.0188973
0.00075589 0.0100155 -0.0353379
0.0251334 -0.0162516 0.0400622
0.00718096 -0.013606 0.0383614
0.0211649 -0.0319364 0.034393
0.0230547 -0.0332592 0.0162516
0.0119053 -0.0107714 0.00151178
-0.00396842 -0.0075589 0.00907068
-0.00472431 -0.0100155 0.0283459
0.0168186 0.0177634 -0.0304246
-0.0141729 0.027401 0.013606
-0.00831479 -0.00283459 -0.00661404
-0.00188973 0.00642507 0.0062361
-0.00925966 -0.00548021 -0.00566918
-0.00812582 0.00245664 -0.000566918
-0.0166296 -0.0151178 -0.013606
-0.0109604 -0.0168186 -0.0119053
-0.00925966 -0.00472431 -0.00642507
-0.00472431 0.020976 0.00585815
-0.00434637 0.0217318 0.00812582
-0.0128501 -0.0102045 -0.00982658
0.00529123 0.0428968 -0.000377945
-0.0202201 0.00907068 -0.0158737
0.00510226 -0.0041574 -0.00925966
-0.00453534 0.0381725 -0.00434637
-0.0304246 -0.00850377 -0.0540462
-0.0268341 -0.0107714 -0.020976
0.00491329 0.020976 -0.0126612
0.00642507 0.0170075 -0.0406291
0.0319364 -0.0421409 0.0447865
0.0338261 -0.0466762 0.0134171
-0.0149288 0.000188973 -0.00075589
-0.0162516 -0.00585815 0.0334482
0.00869274 0.0260782 -0.0376055
-0.00188973 0.0319364 -0.0417629
0.0491329 0.0219208 -0.0396842
0.00907068 0.00661404 0.0574477
-0.0158737 0.0164406 -0.0642507
-0.0610381 0.0874943 0.0336371
-0.0130391 -0.0328812 -0.0192752
-0.0105825 -0.0126612 -0.0105825
-0.00170075 0.0385504 0.013606
-0.00245664 0.0357158 0.0158737
-0.0221098 0.00264562 -0.0192752
Vibration 13
-0.000944863 -0.0103935 0.00680301
0.0020787 -0.00888171 0.0211649
0.00869274 -0.0122832 0.00944863
0.0117163 -0.0107714 -0.013984
0.0151178 -0.0151178 -0.0389284
0.00566918 -0.00944863 -0.0200311
0.00321253 -0.0196532 -0.0612271
0.00925966 0.0612271 -0.00585815
0.0141729 0.176878 0.013984
-0.00264562 -0.0100155 0.0132281
-0.00869274 -0.00548021 0.00604712
-0.0096376 -0.00472431 0.00075589
-0.00340151 -0.0122832 0.00491329
0.00548021 -0.0192752 0.0141729
0.00321253 -0.0168186 0.0162516
-0.00585815 -0.0105825 -0.00699199
0.0103935 -0.00226767 0.00850377
0.0156847 0.00188973 0.00491329
0.0162516 0.00264562 0.00132281
0.013795 0.000188973 0.00075589
0.0111494 0.0122832 -0.000377945
0.0105825 0.0105825 0.00396842
0.0122832 -0.0198421 0.0020787
-0.00548021 -0.0215429 -0.0107714
-0.00396842 -0.0117163 -0.00510226
0.00113384 -0.00566918 -0.000566918
-0.00113384 0.00661404 0.00302356
-0.0147399 -0.0190862 -0.0096376
0.00359048 0.0124722 0.0119053
0.00491329 0.0410071 0.013984
0.000944863 0.0534792 0.013795
-0.013984 0.00699199 -0.0062361
-0.0236216 -0.0330702 -0.0213539
-0.0119053 -0.0122832 -0.00359048
-0.00661404 -0.0117163 0.00245664
-0.0444086 -0.0591484 0.0289128
-0.000944863 -0.0102045 0.0389284
-0.0251334 -0.0398732 0.0107714
-0.0122832 -0.00113384 0.00377945
-0.0153068 0.00113384 -0.00661404
0.013795 -0.0266451 0.0196532
0.00529123 -0.0200311 0.0198421
0.0185193 0.00151178 0.00699199
0.0181414 0.00226767 0.000377945
0.00907068 0.0200311 -0.00434637
0.00944863 0.0166296 0.00321253
0.0258892 -0.0147399 -0.0198421
0.0096376 -0.0517785 0.00472431
-0.00075589 -0.00907068 0.0236216
-0.0183303 -0.0103935 -0.034204
0.00151178 -0.0105825 0.0111494
0.000188973 -0.0506447 -0.013606
0.00944863 0.0542351 0.0192752
0.00888171 0.0935414 0.0260782
-0.0177634 0.0041574 -0.0103935
-0.0366607 -0.0682191 -0.0376055
-0.055369 -0.0803134 0.00340151
Vibration 14
0.00113384 -0.00075589 -0.0062361
0.00113384 0.00188973 -0.0285349
0.00132281 0.00151178 -0.0188973
0.000566918 0.00321253 0.00944863
0.00113384 -0.00075589 0.0183303
0.00075589 -0.00151178 0.00907068
-0.00453534 -0.00264562 0.0272121
0.00188973 0.0211649 -0.00302356
0.00359048 0.061794 -0.0238105
0.0149288 -0.00718096 0.00396842
0.027779 -0.0149288 0.0151178
0.0264562 -0.013984 0.0151178
0.0113384 -0.00453534 0.00377945
0.0236216 -0.00944863 0.0122832
0.0215429 -0.00869274 0.00944863
-0.0302356 0.0168186 -0.02759
0.000377945 -0.0143619 -0.0177634
-0.00944863 -0.0239995 -0.0102045
-0.0103935 -0.0224877 0.000188973
-0.000377945 -0.00925966 0.00226767
0.00718096 -0.0247554 0.00151178
0.00718096 -0.0268341 -0.00869274
0.00302356 0.0317474 0.00491329
0.00491329 0.00302356 0.00566918
-0.0107714 0.00170075 0.000188973
-0.00736993 0.00699199 0.00585815
-0.00812582 0.00132281 0.00434637
-0.00245664 0.0124722 0.00982658
-0.0188973 -0.0164406 -0.0115273
-0.0128501 -0.0230547 -0.00283459
-0.0115273 -0.0332592 -0.00453534
-0.00340151 -0.00453534 0.00812582
0.00283459 0.020409 0.0168186
-0.00699199 0.000944863 0.000188973
-0.0117163 0.0188973 0.00718096
-0.00548021 0.0296687 -0.020409
0.00283459 0.0020787 -0.047999
-0.0109604 0.0306136 -0.0020787
0.0357158 -0.0198421 0.020787
0.0315584 -0.0177634 0.0202201
0.0294797 -0.0113384 0.0171965
0.0232436 -0.0075589 0.00888171
-0.0168186 -0.0279679 -0.0134171
-0.0181414 -0.0257003 0.00510226
0.013606 -0.0300466 0.0075589
0.013795 -0.0340151 -0.0105825
-0.0266451 0.0260782 0.0436527
0.0111494 0.0888171 0.00188973
0.0279679 0.0153068 -0.0306136
-0.062172 0.0393063 -0.0466762
0.0315584 0.0472432 0.102045
0.0638727 -0.0844708 -0.0198421
-0.0168186 -0.0330702 -0.00661404
-0.0168186 -0.0599043 -0.013984
-0.00132281 -0.00359048 0.0102045
0.0105825 0.0402512 0.0258892
-0.00264562 0.0296687 -0.0122832
Vibration 15
-0.0062361 0.0128501 -0.0154958
-0.00793685 0.00699199 0.00151178
-0.0075589 0.00529123 0.00869274
-0.00491329 0.00434637 -0.0107714
-0.00642507 0.0102045 -0.0232436
-0.00831479 0.0117163 -0.0238105
0.00113384 0.0126612 -0.0213539
-0.00907068 -0.00396842 -0.00491329
-0.0102045 -0.0319364 0.0230547
0.00585815 0.00869274 -0.00869274
0.0236216 0.00245664 0.00302356
0.0304246 -0.000566918 0.00907068
0.0190862 0.00888171 0.00113384
0.0215429 0.00680301 0.00396842
0.0128501 0.0102045 -0.00283459
-0.0096376 0.0236216 -0.0156847
-0.0102045 -0.0100155 0.0219208
-0.00680301 -0.0306136 0.0234326
-0.00661404 -0.0385504 0.0156847
-0.0128501 -0.0171965 0.00472431
-0.020787 -0.0247554 0.0103935
-0.0198421 -0.020409 0.0188973
-0.00680301 0.0298577 -0.0230547
0.0113384 0.0238105 0.0075589
0.00869274 0.00718096 0.0041574
0.00302356 -0.00151178 -0.00283459
0.000944863 -0.00226767 -0.00491329
-0.00736993 -0.0188973 -0.0128501
0.0107714 0.0141729 0.00888171
0.00434637 0.0175745 0.00302356