[Molden Format]
[FREQ]
3.2
10.3
24.4
26.9
29.8
34.2
42.2
43.8
46.8
55.3
71.0
73.4
88.2
107.1
115.6
119.7
125.3
137.8
150.1
176.9
184.1
191.7
207.2
227.0
241.4
250.5
260.0
273.5
290.3
315.2
317.9
324.0
335.7
351.7
356.1
364.4
393.5
408.5
420.3
430.6
464.5
470.8
488.2
511.8
526.2
541.1
556.8
564.5
581.8
609.5
611.1
616.0
630.0
638.8
649.9
654.6
670.3
679.0
707.5
720.2
735.8
761.2
772.4
786.0
809.8
828.5
846.7
851.9
876.3
881.3
882.7
897.8
901.1
935.3
966.4
972.3
996.7
1001.4
1009.2
1009.8
1016.6
1017.1
1020.7
1024.9
1033.3
1048.1
1070.7
1075.1
1080.5
1105.3
1125.4
1172.3
1177.9
1182.5
1183.1
1199.7
1203.6
1206.7
1240.1
1258.4
1265.3
1270.3
1272.0
1272.7
1278.8
1283.4
1286.3
1295.4
1302.4
1321.6
1329.6
1336.4
1341.0
1344.0
1348.7
1352.0
1355.5
1364.6
1374.2
1384.7
1395.2
1428.1
1498.8
1515.2
1518.3
1522.2
1529.3
1539.1
1560.6
1578.5
1600.4
1607.6
1646.2
1690.9
1691.1
1697.7
1699.8
1705.1
1708.3
1710.4
1812.1
1821.9
1837.7
2453.5
2646.6
2651.5
2653.7
2666.1
2673.2
2727.0
2729.4
2733.2
2739.4
2744.7
2745.1
2746.3
2749.6
2754.7
2758.1
2760.8
2764.7
2765.8
2766.3
2768.9
2779.2
       
[FR-COORD]
C -2.31416 -2.87201 1.08546
C 0.319742 -2.87201 1.08546
C 1.62479 -0.562571 1.08546
N 0.401378 1.67165 1.06524
C -2.1558 1.69093 1.03066
C -3.62204 -0.556335 1.05182
N -3.26809 4.07897 0.944485
C -6.28787 -0.463172 0.998342
N -8.47372 -0.372087 0.955256
C -3.68515 -5.27687 1.1138
C -3.25562 -7.04131 -0.816929
C -4.54536 -9.31616 -0.835637
C -6.27276 -9.82676 1.11947
C -6.7072 -8.10069 3.06703
C -5.40424 -5.81695 3.04133
O -7.39582 -12.116 0.875888
C 4.39985 -0.445219 1.12174
C 5.63554 1.14858 2.82533
C 8.26169 1.27878 2.82344
C 9.6582 -0.161005 1.10625
C 8.41136 -1.75385 -0.594697
C 5.78861 -1.90465 -0.583925
C 12.4705 -0.0190862 1.09585
C -9.25777 -12.7797 2.69607
C -1.90938 6.35477 0.803511
C 0.993051 6.35553 0.824865
C 2.42905 6.00045 -1.55279
C 1.40407 5.92618 -3.98638
C -1.28445 6.50576 -4.56974
C 5.02365 5.58905 -1.23305
C 6.56207 5.01382 -3.2902
C 5.51006 4.82277 -5.69393
C 2.94136 5.2918 -6.03503
O -2.38257 5.42125 -6.25688
O 1.99347 6.76257 2.82401
O -3.11238 8.28815 0.709025
H 1.36382 -4.64268 1.13724
H -5.19864 4.20445 1.02593
H -1.91599 -6.60232 -2.32323
H -4.26247 -10.7013 -2.32682
H -8.03927 -8.49923 4.57389
H -5.73286 -4.44029 4.54309
H 4.53326 2.30773 4.13623
H 9.22394 2.51466 4.15664
H 9.4955 -2.87919 -1.92979
H 4.8171 -3.13997 -1.9158
H 13.1839 1.7771 1.85552
H 13.2636 -0.228657 -0.811637
H 13.2874 -1.53748 2.26276
H -9.87155 -14.6488 2.03089
H -10.8391 -11.4455 2.6596
H -8.42421 -12.924 4.58259
H 5.84814 5.69998 0.661782
H 8.57539 4.70239 -3.00712
H 6.68604 4.31122 -7.30304
H 2.10856 5.13268 -7.91946
H -2.24424 7.98126 -3.47162

[FR-NORM-COORD]
Vibration 1
0.00491329 -0.0122832 0.000566918
0.00491329 -0.0117163 0.00529123
0.0041574 -0.0113384 0.00188973
0.00472431 -0.0113384 -0.00680301
0.00472431 -0.0120942 -0.0115273
0.00491329 -0.0124722 -0.00888171
0.0020787 -0.013606 -0.0162516
0.00510226 -0.0132281 -0.0141729
0.00510226 -0.0141729 -0.0188973
0.00472431 -0.0120942 0.00642507
0.0075589 -0.0190862 0.0134171
0.00680301 -0.0187083 0.0190862
0.00321253 -0.0113384 0.0179524
0.000566918 -0.00434637 0.0113384
0.00151178 -0.00491329 0.00548021
0.00264562 -0.0117163 0.0239995
0.00434637 -0.0132281 0.00850377
0.00151178 -0.020787 0.0175745
0.00170075 -0.0234326 0.0241885
0.00453534 -0.0188973 0.0226767
0.00718096 -0.0117163 0.013984
0.00680301 -0.00888171 0.00699199
0.00472431 -0.0217318 0.0308025
-0.000944863 -0.00434637 0.0230547
-0.00359048 -0.0105825 -0.0134171
-0.00359048 -0.000188973 -0.0109604
-0.00491329 0.00718096 -0.0124722
-0.00283459 0.0565028 -0.0145509
0.00680301 0.109037 -0.00869274
-0.0115273 -0.0357158 -0.0143619
-0.0179524 -0.0319364 -0.0200311
-0.0179524 0.0158737 -0.0238105
-0.0103935 0.0602823 -0.0211649
-0.0128501 0.140218 -0.0158737
-0.00453534 -0.000566918 -0.0105825
-0.00944863 -0.013984 -0.013795
0.00529123 -0.0113384 0.0122832
0.00132281 -0.0168186 -0.0224877
0.0103935 -0.0249444 0.0141729
0.00888171 -0.0239995 0.0245664
-0.0020787 0.00132281 0.0103935
-0.000566918 0.000377945 0.000188973
-0.000377945 -0.0249444 0.0192752
-0.000188973 -0.0291018 0.0308025
0.00925966 -0.00850377 0.0130391
0.00869274 -0.00321253 0.000377945
0.00359048 -0.0179524 0.0230547
0.0111494 -0.0330702 0.034771
-0.000566918 -0.0158737 0.0421409
-0.000188973 -0.00661404 0.0287238
-0.000377945 -0.00396842 0.0153068
-0.00434637 0.00226767 0.0251334
-0.0124722 -0.0721875 -0.0117163
-0.0230547 -0.0661404 -0.0217318
-0.0238105 0.0190862 -0.0291018
-0.0100155 0.0988327 -0.0243775
0.0351489 0.117919 0.00434637
Vibration 2
-0.00774788 -0.00529123 -0.00510226
-0.00774788 -0.0041574 -0.0096376
-0.00907068 -0.00359048 -0.0151178
-0.0096376 -0.00396842 -0.0168186
-0.00982658 -0.00510226 -0.0143619
-0.00869274 -0.00585815 -0.00831479
-0.0107714 -0.00585815 -0.0183303
-0.00888171 -0.00718096 -0.00548021
-0.00888171 -0.00831479 -0.00321253
-0.00661404 -0.00585815 0.00359048
-0.00812582 -0.0117163 0.00850377
-0.00642507 -0.0128501 0.0177634
-0.00283459 -0.00793685 0.0221098
-0.00151178 -0.0020787 0.0170075
-0.00340151 -0.00113384 0.00774788
-0.000944863 -0.0100155 0.0313695
-0.00888171 -0.00302356 -0.020598
-0.00529123 -0.0194642 -0.00812582
-0.00529123 -0.0187083 -0.013984
-0.00944863 -0.000944863 -0.0323143
-0.0134171 0.0153068 -0.0445975
-0.0134171 0.0141729 -0.0387394
-0.0096376 0.000566918 -0.0391173
0.00302356 -0.00604712 0.0368497
-0.0119053 -0.00510226 -0.0143619
-0.0119053 -0.00245664 0.00869274
0.00869274 0.0105825 0.0192752
0.0285349 0.0149288 0.0107714
0.0315584 0.0096376 -0.00812582
0.0075589 0.0183303 0.0389284
0.0258892 0.0300466 0.0493218
0.0455424 0.0334482 0.0404401
0.0468652 0.0257003 0.0211649
0.0440306 0.00566918 -0.013606
-0.0292908 -0.0111494 0.0192752
-0.0128501 -0.0062361 -0.0257003
-0.00661404 -0.00340151 -0.00869274
-0.0113384 -0.00699199 -0.0283459
-0.0107714 -0.0154958 0.00510226
-0.00736993 -0.0173855 0.0217318
0.000944863 0.00170075 0.0202201
-0.00226767 0.00340151 0.00377945
-0.0020787 -0.0328812 0.00604712
-0.00188973 -0.0319364 -0.0041574
-0.0168186 0.0291018 -0.0589595
-0.0170075 0.0268341 -0.047999
-0.00831479 -0.00661404 -0.0234326
-0.0149288 0.0196532 -0.0434637
-0.00548021 -0.0103935 -0.0563138
0.00453534 -0.00925966 0.0445975
0.00113384 -0.00831479 0.034771
0.00642507 0.00188973 0.0360938
-0.00812582 0.0149288 0.0459203
0.0245664 0.0359048 0.0644397
0.0600933 0.0417629 0.048377
0.062172 0.0283459 0.0141729
0.0226767 0.0100155 -0.0162516
Vibration 3
-0.00548021 -0.000944863 -0.0202201
-0.00548021 -0.00340151 -0.0173855
-0.00264562 -0.00472431 -0.0173855
-0.00151178 -0.00396842 -0.0185193
-0.00151178 -0.00151178 -0.0183303
-0.00359048 0.000188973 -0.0241885
0.00283459 0.00113384 -0.00736993
-0.00340151 0.00283459 -0.0330702
-0.00302356 0.00529123 -0.0419519
-0.00661404 -0.000188973 -0.0124722
-0.00396842 -0.0109604 -0.00188973
-0.000944863 -0.0128501 0.0113384
-0.00075589 -0.00359048 0.013795
-0.00548021 0.00831479 0.00226767
-0.00831479 0.00982658 -0.0109604
0.00453534 -0.00774788 0.0289128
-0.00302356 -0.00585815 -0.0096376
-0.00944863 0.0192752 -0.0279679
-0.00925966 0.0156847 -0.0158737
-0.0020787 -0.013606 0.0145509
0.00453534 -0.0374166 0.0319364
0.00434637 -0.0332592 0.0198421
-0.00170075 -0.0196532 0.0287238
0.00869274 -0.00170075 0.0353379
0.0107714 -0.0020787 0.013606
0.0109604 -0.0160627 0.00869274
0.00491329 0.00982658 0.00113384
-0.0041574 0.0120942 0.00472431
-0.0122832 -0.0132281 0.0170075
0.0100155 0.0321253 -0.0117163
0.00736993 0.0585815 -0.0211649
-0.000188973 0.061983 -0.0179524
-0.0062361 0.0381725 -0.00491329
-0.0107714 -0.0251334 0.0238105
0.0166296 -0.0453534 0.0119053
0.0188973 0.00377945 0.0326923
-0.0075589 -0.00453534 -0.0134171
0.00340151 0.00529123 -0.00642507
-0.00377945 -0.0183303 -0.00396842
0.00170075 -0.0215429 0.0198421
-0.00642507 0.0160627 0.00340151
-0.0115273 0.0187083 -0.0198421
-0.0149288 0.041385 -0.0515895
-0.0149288 0.0349599 -0.0296687
0.0102045 -0.0593374 0.054991
0.0100155 -0.0521564 0.0330702
-0.00170075 -0.0145509 0.0168186
0.00774788 -0.0377945 0.034582
-0.0113384 -0.0113384 0.0461093
0.0151178 -0.00869274 0.0495108
0.00359048 -0.00774788 0.0270231
0.0107714 0.0153068 0.0357158
0.0168186 0.0291018 -0.0145509
0.0115273 0.0765339 -0.0309915
-0.00170075 0.082959 -0.0257003
-0.0124722 0.0391173 -0.00226767
-0.020409 -0.0198421 0.0188973
Vibration 4
-0.00793685 0.00736993 -0.00925966
-0.00831479 0.00472431 -0.0175745
-0.00661404 0.00396842 -0.0115273
-0.00529123 0.00472431 -0.0075589
-0.00548021 0.00680301 -0.00245664
-0.00699199 0.00793685 0.00359048
-0.00340151 0.0075589 -0.00340151
-0.00736993 0.00736993 0.0258892
-0.00793685 0.00548021 0.0468652
-0.00869274 0.00736993 -0.0119053
-0.0531013 0.0357158 -0.0474321
-0.048377 0.0330702 -0.0461093
0.00321253 0.00188973 -0.00869274
0.0455424 -0.0243775 0.0239995
0.0383614 -0.0202201 0.0217318
0.00604712 0.000377945 -0.00925966
-0.00661404 0.000377945 -0.00472431
-0.00982658 0 -0.0020787
-0.00944863 -0.00850377 0.0107714
-0.00548021 -0.0168186 0.020787
-0.00226767 -0.0145509 0.0166296
-0.00283459 -0.00585815 0.00359048
-0.00491329 -0.0281569 0.0374166
0.0642507 -0.0357158 0.0368497
-0.00113384 0.00585815 -0.00925966
-0.00113384 0.00302356 -0.00699199
0.00170075 0.00188973 -0.00510226
0.00510226 0.0020787 -0.00642507
0.00604712 0.00226767 -0.0102045
0.00113384 0.00075589 -0.00151178
0.00377945 0.000188973 0.000566918
0.00718096 0.00075589 -0.000944863
0.00774788 0.00170075 -0.00434637
0.00831479 0.00245664 -0.0119053
-0.00283459 0.0020787 -0.00566918
0.000944863 0.00699199 -0.013984
-0.0102045 0.00340151 -0.02759
-0.00321253 0.00944863 -0.00188973
-0.0914627 0.0595264 -0.0744552
-0.0831479 0.0542351 -0.0723765
0.0835259 -0.0478101 0.0514005
0.0704868 -0.0394953 0.0462983
-0.0126612 0.00566918 -0.00925966
-0.0120942 -0.00907068 0.0132281
0.000566918 -0.0202201 0.0236216
-0.000188973 -0.00472431 0.000566918
-0.00302356 -0.0226767 0.0228657
0.00718096 -0.0519675 0.0451645
-0.0187083 -0.0187083 0.0595264
0.0565028 -0.0308025 0.0300466
0.0546131 -0.0453534 0.101289
0.120565 -0.055369 0.0103935
-0.00132281 0.000566918 -0.000377945
0.00321253 -0.000566918 0.00340151
0.00925966 0.000566918 0.00075589
0.0103935 0.0020787 -0.00566918
0.00453534 0.00226767 -0.0115273
Vibration 5
-0.0145509 0.0177634 -0.0130391
-0.0143619 0.0141729 -0.00888171
-0.0103935 0.0115273 -0.00264562
-0.0062361 0.013606 0.00434637
-0.0062361 0.0177634 -0.000944863
-0.0103935 0.0200311 -0.0120942
-0.00188973 0.0200311 0.00510226
-0.0100155 0.0257003 -0.0238105
-0.00944863 0.0308025 -0.034771
-0.0113384 0.0162516 -0.0147399
0.0170075 0.00396842 0.00245664
0.0368497 -0.00718096 0.0113384
0.0270231 -0.00604712 0.00321253
-0.00812582 0.00982658 -0.0187083
-0.0270231 0.020598 -0.02759
0.0555579 -0.0215429 0.0185193
-0.0100155 0.00245664 -0.0041574
-0.00151178 -0.0149288 0.00548021
-0.00075589 -0.0285349 0.00510226
-0.00888171 -0.0247554 -0.00472431
-0.0177634 -0.00585815 -0.0158737
-0.0183303 0.00774788 -0.0156847
-0.00793685 -0.0410071 -0.00302356
0.0589595 -0.0300466 0.0188973
0.00245664 0.0181414 0.0100155
0.00264562 0.0128501 0.00718096
-0.000566918 -0.00245664 0.0075589
-0.00340151 -0.00869274 0.00888171
-0.00132281 0.00188973 0.0096376
-0.00245664 -0.0134171 0.00718096
-0.00736993 -0.0313695 0.00850377
-0.0107714 -0.0383614 0.0105825
-0.00869274 -0.0266451 0.0105825
-0.00661404 0.00491329 0.0111494
0.00529123 0.0198421 0.00434637
0.00604712 0.020409 0.0153068
-0.0168186 0.0124722 -0.0100155
-0.00151178 0.0234326 0.00566918
0.0253223 0.00245664 0.00925966
0.0608492 -0.0177634 0.0258892
-0.0196532 0.0130391 -0.0279679
-0.0527234 0.0313695 -0.0430858
0.00510226 -0.0183303 0.013795
0.00642507 -0.0425188 0.0130391
-0.0241885 -0.0020787 -0.0243775
-0.0255113 0.0221098 -0.0238105
0.00151178 -0.0442196 -0.00434637
-0.00736993 -0.0476211 -0.0020787
-0.0177634 -0.0444086 -0.00075589
0.0916517 -0.0478101 0.0385504
0.0377945 -0.0557469 -0.00377945
0.0531013 0.00566918 0.0241885
-0.000188973 -0.00831479 0.00585815
-0.00869274 -0.0402512 0.00793685
-0.0151178 -0.0529123 0.0119053
-0.0113384 -0.0311805 0.0120942
0.00510226 0.00642507 0.00907068
Vibration 6
-0.00736993 0.00472431 0.0239995
-0.00718096 0.00491329 0.0173855
-0.00566918 0.00396842 0.00699199
-0.00472431 0.00453534 0.000944863
-0.00491329 0.00472431 0.0120942
-0.0062361 0.00529123 0.0287238
-0.00491329 0.00453534 0.00283459
-0.00661404 0.00850377 0.0514005
-0.00680301 0.0124722 0.0733214
-0.00283459 0.00226767 0.0170075
0.0279679 -0.00075589 0.0258892
0.0374166 -0.00566918 0.013795
0.013795 -0.00812582 -0.0075589
-0.0177634 -0.00566918 -0.0170075
-0.0255113 -0.000944863 -0.0041574
0.0264562 -0.0130391 -0.0179524
-0.00566918 -0.00151178 0.000377945
0.00245664 0.0130391 -0.0192752
0.00321253 -0.000188973 -0.020787
-0.00396842 -0.0287238 -0.00264562
-0.0119053 -0.041574 0.0153068
-0.0126612 -0.02759 0.0164406
-0.00302356 -0.0466762 -0.0020787
0.00113384 -0.0151178 -0.0445975
-0.00566918 0.00359048 -0.0141729
-0.00566918 0.00510226 -0.0111494
-0.00113384 0.0107714 -0.00925966
0.0041574 0.0113384 -0.0115273
0.00340151 0.0020787 -0.0171965
-0.000377945 0.0188973 -0.00491329
0.0062361 0.0289128 -0.00283459
0.0120942 0.0306136 -0.00548021
0.0109604 0.0213539 -0.00982658
0.0111494 -0.000566918 -0.020409
-0.00888171 0.00359048 -0.00925966
-0.0062361 0.00264562 -0.027779
-0.00736993 0.00453534 0.0192752
-0.00472431 0.00510226 0.00491329
0.0453534 0.00113384 0.0417629
0.062361 -0.00793685 0.020409
-0.0360938 -0.00736993 -0.0336371
-0.0495108 0 -0.0102045
0.00812582 0.0334482 -0.0323143
0.00925966 0.0107714 -0.0355268
-0.0173855 -0.0625499 0.0285349
-0.0185193 -0.0377945 0.0302356
0.00831479 -0.0468652 -0.0122832
-0.00377945 -0.0629279 -0.000566918
-0.0132281 -0.0451645 0.00718096
0.0175745 -0.0188973 -0.0495108
-0.00264562 -0.020598 -0.0714316
-0.0268341 -0.00793685 -0.0317474
-0.00434637 0.0185193 -0.00321253
0.00680301 0.0357158 0.00075589
0.0173855 0.0389284 -0.00434637
0.0154958 0.0221098 -0.0117163
-0.00434637 -0.0020787 -0.0185193
Vibration 7
0.0190862 -0.000944863 -0.00113384
0.0185193 0.00510226 0.00302356
0.0134171 0.00869274 0.000377945
0.00944863 0.00680301 0.00283459
0.00907068 -0.000188973 -0.00188973
0.0145509 -0.00377945 -0.00888171
-0.00377945 -0.00604712 -0.00075589
0.0145509 -0.0132281 -0.0270231
0.0145509 -0.0232436 -0.0451645
0.0200311 -0.00132281 0.00264562
0.00434637 0.00264562 -0.00396842
-0.00529123 0.00793685 -0.00396842
0.00170075 0.00982658 0.00283459
0.0217318 0.0041574 0.0124722
0.0306136 -0.00113384 0.0122832
-0.013606 0.0177634 -0.000944863
0.013606 0.00377945 -0.00680301
0.0255113 0.0100155 -0.0213539
0.0268341 -0.0109604 -0.0215429
0.0166296 -0.0391173 -0.0062361
0.00453534 -0.0410071 0.00434637
0.00359048 -0.0188973 0.00396842
0.0181414 -0.068975 0.000377945
-0.0164406 0.0270231 -0.000377945
-0.0241885 0.00529123 -0.000377945
-0.0249444 0.0336371 0.00396842
-0.0190862 0.020976 0.0100155
-0.0149288 0.0020787 0.00869274
-0.0143619 -0.00321253 0.00075589
-0.0194642 0.0268341 0.0183303
-0.0153068 0.0124722 0.0253223
-0.0109604 -0.00793685 0.0251334
-0.0107714 -0.0124722 0.0166296
-0.00888171 -0.00793685 0.000188973
-0.0317474 0.0606602 0.00188973
-0.0428968 -0.0062361 -0.00434637
0.0221098 0.00736993 0.00699199
-0.00548021 -0.0196532 -0.00396842
-0.00151178 0.00170075 -0.00944863
-0.0190862 0.0111494 -0.0096376
0.0298577 0.00396842 0.0194642
0.0451645 -0.00434637 0.0183303
0.0340151 0.0281569 -0.0304246
0.0360938 -0.00699199 -0.0319364
-0.00377945 -0.0608492 0.0141729
-0.00548021 -0.0213539 0.0124722
0.034393 -0.062361 -0.0308025
0.0228657 -0.113384 0.00718096
-0.00226767 -0.0559359 0.0317474
-0.0357158 0.0360938 -0.00812582
-0.00396842 0.0421409 0.00944863
-0.013795 0.0100155 -0.00283459
-0.0230547 0.0428968 0.0187083
-0.0153068 0.0168186 0.0311805
-0.00774788 -0.0200311 0.0313695
-0.00718096 -0.02759 0.0162516
-0.0196532 -0.00302356 -0.00396842
Vibration 8
-0.00434637 0.000944863 0.0128501
-0.00453534 -0.00170075 0.0266451
-0.00226767 -0.00283459 0.0230547
-0.000188973 -0.00170075 0.0145509
-0.000188973 0.000377945 0.00585815
-0.00226767 0.00170075 0.00113384
0.00151178 0.000944863 -0.000377945
-0.00188973 0.0020787 -0.0181414
-0.00151178 0.00132281 -0.0359048
-0.00585815 0.00151178 0.00680301
-0.0115273 0.0107714 -0.00283459
-0.00944863 0.00982658 -0.00831479
-0.00113384 -0.00075589 -0.00340151
0.00283459 -0.00888171 0.00453534
0 -0.00699199 0.00944863
0.00245664 -0.0020787 -0.00850377
-0.0020787 -0.00529123 0.0196532
0.00359048 0.0156847 -0.00510226
0.0041574 0.020409 -0.0192752
-0.00245664 0.00302356 -0.00869274
-0.00831479 -0.0236216 0.0192752
-0.00736993 -0.02759 0.0334482
-0.00283459 0.00831479 -0.0417629
0.0179524 -0.0175745 0.00170075
0.00188973 0.000377945 -0.00151178
0.00170075 0.00151178 -0.000188973
0.0020787 0.000944863 0.000188973
0.00302356 0.00226767 -0.000188973
0.00453534 0.00831479 -0.00188973
0.00188973 -0.000188973 0.000566918
0.00188973 -0.00283459 0.00132281
0.0020787 -0.00359048 0.00132281
0.00283459 -0.000377945 0.000377945
0.00396842 0.0128501 -0.0041574
0.00132281 0.00283459 -0.000377945
0.00188973 0.000377945 -0.00491329
-0.00680301 -0.00264562 0.0370386
0.00132281 0.00170075 -0.00396842
-0.0171965 0.0187083 -0.00548021
-0.013984 0.0166296 -0.0154958
0.00812582 -0.0164406 0.00718096
0.00283459 -0.0128501 0.0151178
0.00831479 0.0298577 -0.0132281
0.00699199 0.0389284 -0.0385504
-0.0113384 -0.0393063 0.0300466
-0.0117163 -0.0468652 0.0544241
0.0177634 -0.111683 0.221287
-0.0506447 0.306325 -0.0952422
0.0251334 -0.174233 -0.299333
0.0213539 -0.0173855 -0.0020787
0.0120942 -0.0241885 0.0183303
0.0315584 -0.0221098 -0.00472431
0.0020787 0.00170075 0.000377945
0.00151178 -0.00396842 0.0020787
0.00170075 -0.0062361 0.00188973
0.00321253 0.000188973 0.000188973
0.00680301 0.00925966 -0.000944863
Vibration 9
0.00736993 0.000188973 -0.0154958
0.0075589 0.00377945 -0.0300466
0.0041574 0.00566918 -0.0249444
0.00151178 0.0041574 -0.0164406
0.00132281 0.00075589 -0.00793685
0.00434637 -0.00113384 -0.00283459
-0.00226767 -0.00075589 -0.00151178
0.00396842 -0.00283459 0.0183303
0.00340151 -0.00321253 0.0381725
0.00944863 -0.000566918 -0.00831479
0.0124722 -0.00982658 0.00075589
0.00944863 -0.00831479 0.00736993
0.00302356 0.00264562 0.00453534
0.00226767 0.0105825 -0.00264562
0.00585815 0.00812582 -0.00869274
-0.0020787 0.00472431 0.0103935
0.0041574 0.00718096 -0.0181414
-0.00264562 -0.0198421 0.0117163
-0.00188973 -0.0302356 0.0334482
0.00510226 -0.0122832 0.0247554
0.0109604 0.0211649 -0.0115273
0.0105825 0.0304246 -0.0328812
0.0062361 -0.0326923 0.0474321
-0.0173855 0.0219208 0.00113384
-0.00453534 0.000944863 -0.000944863
-0.00453534 0.00188973 -0.00321253
-0.00585815 0.00170075 -0.00396842
-0.00774788 -0.000566918 -0.00302356
-0.0109604 -0.0124722 0
-0.00529123 0.00396842 -0.00529123
-0.00529123 0.0107714 -0.00699199
-0.00585815 0.0128501 -0.00699199
-0.00736993 0.00585815 -0.00472431
-0.0100155 -0.0222988 0.00566918
-0.00377945 0.00321253 -0.00396842
-0.00642507 0 0.00245664
0.0105825 0.00529123 -0.041574
-0.0020787 -0.00302356 0.00226767
0.0164406 -0.0179524 0.00188973
0.0117163 -0.0151178 0.0141729
-0.00113384 0.0183303 -0.00359048
0.00548021 0.013795 -0.013795
-0.0075589 -0.0336371 0.0194642
-0.00774788 -0.0525344 0.0585815
0.0171965 0.0389284 -0.0213539
0.0151178 0.054991 -0.0587705
0.0230547 -0.1251 0.249444
0.00340151 0.175367 0.0230547
-0.00718096 -0.171209 -0.123777
-0.0224877 0.0221098 0.00529123
-0.0103935 0.0298577 -0.0147399
-0.0302356 0.0257003 0.00718096
-0.00510226 0.000377945 -0.00510226
-0.00453534 0.0143619 -0.00850377
-0.00529123 0.0192752 -0.00850377
-0.00831479 0.00491329 -0.00434637
-0.0147399 -0.0128501 -0.00283459
Vibration 10
0.000944863 -0.00396842 -0.0300466
0.00113384 -0.00453534 -0.0464873
0.00226767 -0.00529123 -0.0353379
0.0020787 -0.00453534 -0.0228657
0.00245664 -0.00340151 -0.0128501
0.00170075 -0.00321253 -0.00982658
0.00132281 -0.00340151 -0.00075589
0.00132281 0.00075589 0.0224877
0.00075589 0.0062361 0.0538572
0 -0.00340151 -0.0226767
0.0041574 -0.0170075 -0.00925966
0.00359048 -0.0170075 0.00321253
-0.0020787 -0.00302356 0.00188973
-0.00718096 0.0111494 -0.0117163
-0.00566918 0.0096376 -0.0236216
-0.00188973 -0.00453534 0.0164406
0.00188973 -0.0020787 -0.0247554
-0.0124722 0.0306136 -0.0444086
-0.0130391 0.041196 -0.0317474
0.00188973 0.0160627 0.00170075
0.0171965 -0.020598 0.0245664
0.0175745 -0.0289128 0.0109604
0.00132281 0.0285349 0.0115273
-0.00831479 0.0109604 0.0158737
-0.00321253 -0.000188973 0.0096376
-0.00340151 0.00774788 0.0096376
-0.000566918 0.00472431 0.0119053
0.00113384 -0.00869274 0.0113384
0.00774788 0.0124722 0.00359048
-0.00113384 0.00548021 0.0160627
-0.00264562 -0.0234326 0.0228657
-0.00359048 -0.0500777 0.0255113
-0.00075589 -0.0385504 0.0190862
0.0111494 0.0406291 -0.0168186
-0.00566918 0.00831479 0.0107714
-0.00793685 -0.00245664 0.020409
0.000377945 -0.00529123 -0.0614161
0.00113384 -0.00548021 0.00321253
0.00793685 -0.0279679 -0.00907068
0.0075589 -0.02759 0.013795
-0.0119053 0.0226767 -0.0128501
-0.00850377 0.0192752 -0.0328812
-0.0239995 0.048188 -0.068786
-0.0257003 0.0682191 -0.0476211
0.0294797 -0.0419519 0.0525344
0.0304246 -0.0565028 0.0272121
-0.00699199 0.0188973 0.041574
0.00529123 0.062172 0.00925966
0.00529123 0.0130391 -0.0113384
-0.00585815 0.00510226 0.0298577
-0.00812582 0.0105825 -0.00151178
-0.0149288 0.027401 0.0200311
-0.000188973 0.027779 0.0141729
-0.00359048 -0.0262672 0.0266451
-0.00642507 -0.0776677 0.0323143
-0.000566918 -0.0521564 0.0198421
0.00869274 0.00264562 0.0173855
Vibration 11
0.00075589 -0.00132281 -0.00907068
0.000944863 -0.00529123 -0.00850377
0.00434637 -0.00718096 -0.0075589
0.00831479 -0.00472431 -0.0170075
0.00850377 -0.00132281 -0.0224877
0.00491329 0.000566918 -0.00907068
0.0075589 -0.00245664 -0.0417629
0.00472431 0.00736993 0.0107714
0.00453534 0.0156847 0.0328812
-0.00283459 0.000566918 -0.00925966
-0.000377945 -0.00245664 -0.00604712
-0.00113384 -0.0020787 -0.00510226
-0.00453534 0.00132281 -0.00736993
-0.00982658 0.00566918 -0.0124722
-0.00869274 0.00510226 -0.0132281
-0.00283459 0 -0.00434637
0.00472431 -0.0103935 0.000377945
0.00075589 0.000377945 -0.00661404
0.000377945 0.00888171 -0.00831479
0.00434637 0.00510226 -0.00170075
0.00907068 -0.0130391 0.0119053
0.00944863 -0.020409 0.0126612
0.00359048 0.0217318 -0.0102045
0.0075589 -0.00453534 0.00453534
0.00151178 -0.00170075 -0.0583925
0.00151178 0.0109604 -0.00132281
0.0196532 0.0119053 0.0120942
0.0168186 0.0311805 0.0134171
0.0188973 0.0695419 0.0370386
0.0141729 -0.0166296 0.0120942
0.00340151 -0.0323143 0.00812582
-0.00245664 -0.0164406 0.00907068
0.00264562 0.0162516 0.00944863
-0.0797464 -0.0701088 0.192563
-0.0268341 0.0132281 0.0113384
-0.00359048 -0.0075589 -0.123777
-0.00188973 -0.00680301 -0.0075589
0.00510226 -0.00585815 -0.0861715
0.00283459 -0.00529123 -0.0041574
0.00151178 -0.00453534 -0.00226767
-0.0147399 0.00982658 -0.0156847
-0.0122832 0.00793685 -0.0166296
-0.00245664 0.00321253 -0.0117163
-0.00321253 0.0194642 -0.0153068
0.0124722 -0.0200311 0.020598
0.0132281 -0.0326923 0.0213539
-0.00491329 0.0270231 -0.0149288
-0.00151178 0.0239995 -0.0126612
0.0166296 0.0283459 -0.0109604
0.0141729 -0.00925966 0.0117163
0.000944863 -0.0124722 0.00680301
0.0151178 0.00434637 0.00188973
0.0147399 -0.02759 0.0119053
-0.000188973 -0.0582036 0.00434637
-0.0102045 -0.0306136 0.00774788
-0.000566918 0.0270231 0.0117163
0.122454 0.230736 -0.0865495
Vibration 12
0.00283459 -0.0120942 -0.00982658
0.00340151 -0.0187083 -0.00907068
0.00982658 -0.0222988 0.0102045
0.0173855 -0.0168186 0.0230547
0.0183303 -0.0105825 0.0168186
0.0117163 -0.00718096 0.00472431
0.0149288 -0.0119053 0.020787
0.0119053 0.00604712 0.00831479
0.0124722 0.0211649 0.0132281
-0.0103935 -0.00472431 -0.0187083
-0.00510226 -0.0156847 -0.00736993
-0.0151178 -0.0103935 -0.00585815
-0.0294797 0.0041574 -0.0145509
-0.0438416 0.0200311 -0.0319364
-0.0340151 0.0141729 -0.0338261
-0.0306136 0.00396842 -0.00642507
0.0103935 -0.0251334 0.0151178
0.00774788 -0.0281569 0.0202201
0.00699199 -0.0149288 0.0141729
0.00982658 0.00132281 0.00264562
0.0132281 -0.0020787 0.00340151
0.013795 -0.0153068 0.0096376
0.00850377 0.0253223 -0.0115273
0.0349599 -0.027401 0.0493218
-0.00188973 -0.0041574 0.00472431
-0.00302356 0.0264562 -0.00699199
-0.00566918 0.00888171 -0.00548021
-0.00396842 0.0062361 -0.00604712
-0.00812582 -0.0143619 -0.00718096
-0.00604712 0.00850377 -0.00226767
-0.00170075 0.0192752 -0.0020787
0.00283459 0.0291018 -0.00491329
0.00132281 0.0192752 -0.0062361
0.00548021 -0.0151178 -0.0154958
-0.000377945 0.0685971 -0.0168186
-0.0194642 -0.0147399 0.000944863
-0.00151178 -0.0217318 -0.0215429
0.013795 -0.0181414 0.0285349
0.00850377 -0.0296687 0.000944863
-0.00907068 -0.0190862 0.00321253
-0.0625499 0.0370386 -0.0438416
-0.0436527 0.0243775 -0.0451645
0.00585815 -0.0393063 0.0279679
0.00434637 -0.0156847 0.0166296
0.0153068 0.00699199 -0.00264562
0.0168186 -0.0166296 0.00850377
-0.00396842 0.0353379 -0.0232436
0.00132281 0.0236216 -0.0143619
0.027779 0.0381725 -0.00850377
0.0591484 -0.0453534 0.0774788
0.0041574 -0.0629279 0.0831479
0.0884392 0.00302356 0.0281569
-0.00925966 0.000944863 -0.000377945
-0.00170075 0.0215429 -0.000188973
0.00736993 0.0423299 -0.00585815
0.0041574 0.0215429 -0.00774788
-0.0253223 -0.0309915 0.000188973
Vibration 13
-0.0147399 -0.00075589 -0.0213539
-0.0143619 -0.0109604 -0.0221098
-0.00548021 -0.0166296 0.000188973
0.00453534 -0.0102045 0.013795
0.00529123 -0.000377945 0.00566918
-0.00453534 0.00453534 -0.00774788
0.0109604 0.00264562 0.0122832
-0.00396842 0.0190862 -0.00377945
-0.00340151 0.0351489 0.000944863
-0.0145509 -0.00151178 -0.0200311
-0.0296687 0.00283459 -0.0272121
-0.00812582 -0.00982658 -0.0062361
0.0253223 -0.0243775 0.0192752
0.0362827 -0.0260782 0.0232436
0.0162516 -0.0147399 0.00377945
0.0544241 -0.0423299 0.048377
-0.00548021 -0.0249444 0.0105825
-0.0096376 -0.0257003 0.0145509
-0.0103935 -0.013606 0.0102045
-0.00718096 -0.000944863 0.0020787
-0.00226767 -0.0115273 0.00850377
-0.00170075 -0.0234326 0.0126612
-0.00888171 0.0287238 -0.0158737
-0.0555579 0.0272121 -0.0385504
0.0062361 0.00472431 0.00566918
0.00585815 0.0243775 -0.00491329
0.00321253 0.00491329 -0.00321253
0.00377945 0.00718096 -0.00340151
0.000188973 -0.00548021 0.000188973
0.00170075 -0.00340151 -0.00170075
0.00283459 0.00283459 -0.00264562
0.00566918 0.0175745 -0.00510226
0.00566918 0.0171965 -0.00491329
0.00340151 -0.0132281 0.00302356
0.00925966 0.0627389 -0.0145509
-0.00132281 0.000566918 0.00774788
-0.0215429 -0.0156847 -0.0360938
0.0105825 0.00453534 0.0179524
-0.0576366 0.0153068 -0.048377
-0.0175745 -0.00793685 -0.00982658
0.0638727 -0.0387394 0.0440306
0.0266451 -0.0171965 0.00812582
-0.0122832 -0.0336371 0.0188973
-0.013606 -0.0115273 0.0107714
0.000944863 -0.00793685 0.00812582
0.0020787 -0.0291018 0.0153068
-0.0236216 0.0385504 -0.0251334
-0.0190862 0.0326923 -0.020598
0.0154958 0.0406291 -0.0175745
-0.0634948 0.0311805 -0.0425188
-0.0236216 0.062172 -0.138139
-0.15458 0.0359048 0.00585815
0 -0.0128501 -0.000377945
0.0020787 -0.0020787 -0.00188973
0.00774788 0.027779 -0.00680301
0.00699199 0.0238105 -0.00604712
-0.0062361 -0.0103935 0.00113384
Vibration 14
0.00850377 0.00566918 -0.0311805
0.00736993 0.013795 -0.0285349
0 0.0188973 0.0194642
-0.00869274 0.013795 0.0527234
-0.0096376 0.00510226 0.0359048
-0.00132281 0.00132281 0.00283459
-0.0151178 0.00264562 0.0398732
-0.0020787 -0.013984 0.00566918
-0.00302356 -0.0338261 0.0109604
0.0113384 0.00529123 -0.041574
0.00491329 -0.0041574 -0.0330702
0.00283459 -0.00434637 -0.0147399
0.00869274 0.00944863 -0.00642507
0.0102045 0.0238105 -0.0183303
0.0128501 0.0202201 -0.0351489
0.0103935 0.00529123 0.0239995
-0.000188973 0.0171965 0.0211649
0.0134171 0.0177634 0.0103935
0.0145509 0.00850377 -0.00321253
0.00170075 -0.00302356 -0.00359048
-0.0117163 -0.00831479 0.0109604
-0.0115273 0.00321253 0.0228657
0.0020787 -0.0117163 -0.0241885
-0.00188973 0.0406291 0.0249444
-0.0102045 -0.00302356 -0.000566918
-0.0100155 -0.0249444 0.00151178
-0.0096376 -0.0247554 0.000944863
-0.00075589 0.00075589 -0.00321253
-0.000944863 -0.00510226 -0.00925966
-0.0126612 -0.0417629 0.00548021
-0.00642507 -0.0253223 0.00585815
0.00453534 0.0164406 -0.00226767
0.00736993 0.0281569 -0.00604712
0.00642507 -0.0115273 -0.0102045
-0.00888171 -0.0379835 0.00377945
-0.00151178 0.000377945 -0.0325033
0.0124722 0.0158737 -0.0582036
-0.013984 0.00188973 0.0455424
0.000377945 -0.013606 -0.0394953
-0.00170075 -0.0141729 -0.0062361
0.0111494 0.0362827 -0.0143619
0.0181414 0.0300466 -0.0427078
0.0232436 0.0258892 0.0120942
0.0251334 0.0107714 -0.0128501
-0.0219208 -0.0200311 0.0124722
-0.0215429 0.000944863 0.0317474
0.0130391 -0.0103935 -0.0377945
-0.0124722 -0.0232436 -0.0289128
0.00604712 -0.00888171 -0.0230547
-0.000188973 0.0292908 0.0555579
0.000188973 0.0421409 -0.00982658
-0.0143619 0.0735103 0.0330702
-0.0188973 -0.0640617 0.00982658
-0.0096376 -0.041574 0.0115273
0.0103935 0.0381725 -0.00472431
0.0153068 0.0566918 -0.0119053
-0.00718096 -0.00604712 -0.013795
Vibration 15
-0.00736993 -0.00604712 0.0103935
-0.00661404 -0.00529123 -0.0211649
-0.0075589 -0.00491329 -0.0149288
-0.00850377 -0.00510226 0.0309915
-0.00812582 -0.00377945 0.0555579
-0.00774788 -0.00453534 0.034771
0.00340151 0.00245664 0.0856046
-0.00736993 -0.0149288 0
-0.00718096 -0.0351489 -0.0487549
-0.0075589 -0.00699199 0.0096376
-0.0062361 -0.00718096 0.0096376
-0.00566918 -0.0075589 0.0062361
-0.00869274 -0.0103935 0.00302356
-0.00982658 -0.0117163 0.00396842
-0.0100155 -0.0111494 0.00699199
-0.00831479 -0.00982658 -0.00340151
-0.00869274 0.0120942 -0.0379835
-0.020409 0.0308025 -0.0459203
-0.0213539 0.034204 -0.0298577
-0.00925966 0.0147399 -0.00377945
0.00188973 0.0194642 -0.0164406
0.00132281 0.0181414 -0.0340151
-0.0075589 -0.0202201 0.0508336
-0.00566918 -0.0190862 -0.0041574
0.0119053 -0.00699199 0.00944863
0.013984 0.00831479 -0.0075589
0.0153068 -0.00434637 -0.00510226
0.0177634 0.00245664 -0.00585815