[Molden Format]
[FREQ]
10.6
19.6
22.1
25.7
27.3
31.7
34.6
37.4
43.5
45.2
59.1
79.9
83.0
84.1
95.0
109.7
123.4
133.5
137.3
153.7
177.4
179.4
193.2
212.6
224.9
246.8
247.1
263.2
278.1
294.1
296.9
309.3
339.3
349.4
352.7
357.3
357.5
371.3
392.0
429.1
461.4
467.5
481.4
510.6
522.2
530.2
536.8
544.2
556.1
577.7
602.5
612.8
614.1
630.6
636.6
659.2
665.4
679.8
691.3
712.2
728.0
746.2
759.5
785.8
790.3
800.3
828.4
835.0
849.2
865.9
880.1
883.5
894.1
900.0
937.1
940.0
944.1
997.3
1006.0
1007.6
1010.0
1010.7
1015.0
1018.2
1032.3
1045.3
1049.2
1064.5
1070.8
1079.6
1084.4
1099.1
1126.4
1149.2
1179.0
1179.3
1183.0
1185.0
1187.9
1205.2
1228.1
1258.0
1262.5
1270.2
1272.9
1275.8
1283.4
1286.7
1292.4
1299.4
1301.9
1323.3
1328.8
1330.3
1332.8
1345.7
1351.3
1352.6
1363.4
1372.0
1377.7
1391.7
1420.2
1453.9
1485.9
1489.5
1520.9
1522.9
1528.2
1574.5
1580.5
1587.2
1680.0
1688.2
1699.1
1699.1
1703.7
1706.9
1708.3
1766.5
1813.6
1851.9
1856.4
2451.0
2651.7
2654.2
2667.1
2674.0
2684.4
2734.4
2740.7
2741.3
2743.8
2744.9
2747.0
2750.3
2753.9
2761.1
2762.1
2765.0
2766.4
2768.2
2769.7
2779.5
2804.2
       
[FR-COORD]
C -1.65464 -2.30206 -1.53521
C 1.04861 -2.30206 -1.53521
C 2.37539 -0.0859825 -1.53521
N 1.10681 2.2295 -1.71152
C -1.53087 2.23668 -2.51919
C -2.92511 -0.0867384 -1.93848
N -2.51598 4.06291 -3.74393
C -5.59132 0.0958091 -1.88708
N -7.77414 0.239995 -1.82056
C -2.95629 -4.69843 -1.06543
C -2.44247 -6.77656 -2.62804
C -3.66645 -9.05519 -2.2397
C -5.40953 -9.24794 -0.24283
C -5.93336 -7.20477 1.33944
C -4.69635 -4.9233 0.904423
O -6.45171 -11.5836 -0.068975
C 5.14894 -0.100155 -1.32243
C 6.27975 -1.02404 0.87551
C 8.9008 -1.14517 1.04294
C 10.3984 -0.346387 -0.980012
C 9.25663 0.594886 -3.16907
C 6.6371 0.729056 -3.33877
C 13.2073 -0.45977 -0.796897
C -8.29854 -11.9765 1.84116
C 1.35701 1.67638 3.78512
C -1.08697 3.25827 3.86392
C -1.17125 5.70584 2.5362
C 0.400055 6.29846 0.497376
C 2.21003 4.44369 -0.603767
C -2.89166 7.51147 3.40472
C -2.98426 9.90084 2.30017
C -1.34586 10.5069 0.330702
C 0.350544 8.70427 -0.573343
O 4.45503 4.75814 -0.641751
O -2.88372 2.42433 5.01477
O 1.74554 0.303679 5.69412
H 2.03675 -4.10335 -1.4498
H -1.62252 5.67163 -4.16666
H -1.08716 -6.58381 -4.17138
H -3.31666 -10.6826 -3.4427
H -7.28659 -7.35406 2.87201
H -5.09999 -3.29984 2.11498
H 5.1068 -1.62157 2.4659
H 9.78292 -1.85231 2.75824
H 10.4179 1.24268 -4.7349
H 5.74779 1.49194 -5.03102
H 13.8615 -1.92639 0.518163
H 13.9721 1.35418 -0.119431
H 14.1021 -0.849999 -2.62974
H -8.81236 -13.967 1.54561
H -9.9409 -10.7541 1.54315
H -7.48331 -11.7137 3.72276
H -4.18215 7.02525 4.94503
H -4.34505 11.2917 2.97764
H -1.3967 12.3845 -0.515706
H 1.6416 9.18067 -2.10931
H 0.537627 0.19672 7.14524

[FR-NORM-COORD]
Vibration 1
-0.00680301 -0.00982658 0.0096376
-0.00699199 -0.0062361 0.00736993
-0.0096376 -0.00472431 0.00850377
-0.0115273 -0.00548021 0.0128501
-0.0141729 -0.00642507 0.0222988
-0.00982658 -0.00982658 0.0196532
-0.0219208 -0.00529123 0.0302356
-0.0100155 -0.013795 0.0257003
-0.0102045 -0.0177634 0.0311805
-0.00283459 -0.0143619 -0.00188973
-0.00075589 -0.0041574 -0.0147399
0.00340151 -0.00850377 -0.02759
0.00548021 -0.0234326 -0.0272121
0.00340151 -0.0338261 -0.0145509
-0.00075589 -0.0291018 -0.00188973
0.0096376 -0.0262672 -0.0402512
-0.00907068 -0.0041574 0.00548021
-0.00718096 0.0162516 0.0130391
-0.00699199 0.0158737 0.0105825
-0.00907068 -0.00472431 0.000944863
-0.0113384 -0.0253223 -0.00680301
-0.0115273 -0.0251334 -0.00472431
-0.00888171 -0.00491329 -0.00151178
0.0115273 -0.0410071 -0.041574
-0.00188973 0.0253223 0.0141729
0.00604712 0.0376055 0.0145509
0.0130391 0.0304246 0.000944863
0.00869274 0.0111494 -0.00793685
-0.00226767 -0.00226767 -0.00302356
0.0253223 0.0440306 -0.00264562
0.0336371 0.0385504 -0.0153068
0.0296687 0.0192752 -0.0245664
0.0170075 0.00566918 -0.020787
-0.00132281 -0.00925966 -0.0115273
0.00661404 0.0532903 0.0268341
-0.00188973 0.0336371 0.0202201
-0.00434637 -0.00491329 0.00472431
-0.0270231 -0.00245664 0.0300466
-0.00226767 0.00718096 -0.0147399
0.00529123 -0.00075589 -0.0376055
0.00510226 -0.0453534 -0.0141729
-0.00245664 -0.0370386 0.00812582
-0.00548021 0.0323143 0.0202201
-0.00510226 0.0319364 0.0162516
-0.0128501 -0.041385 -0.0147399
-0.0130391 -0.041574 -0.0111494
-0.00831479 0.00226767 0.0062361
-0.0075589 -0.00132281 -0.0124722
-0.0107714 -0.0156847 0
0.0145509 -0.0398732 -0.0532903
0.00944863 -0.0417629 -0.0328812
0.0124722 -0.0512116 -0.0404401
0.0285349 0.0591484 0.00472431
0.0434637 0.0493218 -0.0179524
0.0364717 0.0151178 -0.034582
0.0141729 -0.00925966 -0.0279679
0.00245664 0.0470542 0.0249444
Vibration 2
-0.00585815 -0.00396842 0.00151178
-0.0062361 -0.00170075 0.00888171
-0.00718096 -0.00075589 0.00302356
-0.00831479 -0.00264562 -0.0096376
-0.00869274 -0.00566918 -0.00793685
-0.00699199 -0.00604712 -0.0062361
-0.0109604 -0.00718096 -0.00869274
-0.00736993 -0.00907068 -0.0124722
-0.00774788 -0.0119053 -0.0175745
-0.0062361 -0.0041574 0.000188973
-0.00453534 -0.00396842 0.000566918
-0.00774788 -0.00283459 -0.00340151
-0.0128501 -0.00188973 -0.0075589
-0.0132281 -0.00264562 -0.00699199
-0.00982658 -0.00359048 -0.00283459
-0.0168186 -0.000566918 -0.0122832
-0.00774788 0 0.0105825
-0.013795 -0.0321253 0.000377945
-0.0143619 -0.0323143 0.00793685
-0.00812582 -0.000566918 0.0251334
-0.00151178 0.0315584 0.0355268
-0.000944863 0.0321253 0.0287238
-0.00869274 -0.000944863 0.0326923
-0.0241885 0.00151178 -0.0188973
0.0525344 0.0213539 0.00075589
0.0385504 -0.00491329 0.00434637
0.0149288 -0.00642507 0.00188973
-0.00548021 -0.00075589 -0.0120942
-0.0075589 0.0062361 -0.027401
0.0132281 -0.0145509 0.0149288
-0.00793685 -0.0158737 0.013795
-0.0272121 -0.00925966 -0.000377945
-0.0260782 -0.00170075 -0.0132281
-0.00982658 0.0187083 -0.0544241
0.0464873 -0.0219208 0.00377945
0.109226 0.0752111 0.0279679
-0.00529123 -0.00075589 0.0177634
-0.0126612 -0.00680301 -0.0105825
-0.000944863 -0.00453534 0.00377945
-0.00680301 -0.00264562 -0.00340151
-0.0162516 -0.0020787 -0.0096376
-0.00982658 -0.00396842 -0.00226767
-0.0183303 -0.0570697 -0.0122832
-0.0198421 -0.0572587 0.000377945
0.00321253 0.0566918 0.0495108
0.0041574 0.0589595 0.0379835
-0.0115273 -0.0120942 0.0217318
-0.0115273 -0.00642507 0.0508336
-0.00321253 0.0158737 0.0319364
-0.0279679 0.00321253 -0.0230547
-0.020409 0.00585815 -0.0228657
-0.0298577 -0.00264562 -0.0158737
0.0283459 -0.0196532 0.0258892
-0.00925966 -0.0221098 0.0239995
-0.0436527 -0.0102045 -0.00132281
-0.041385 0.00359048 -0.0245664
0.142296 0.0961871 0.0559359
Vibration 3
0.00831479 -0.00151178 0.000188973
0.00888171 -0.00453534 -0.00226767
0.0100155 -0.00566918 0.000566918
0.0119053 -0.00359048 0.00529123
0.013984 -0.00302356 -0.00226767
0.0105825 -0.000377945 0.00075589
0.0202201 -0.00661404 -0.0122832
0.0109604 0.00453534 0.00377945
0.0113384 0.00925966 0.00661404
0.00434637 0.000566918 -0.000188973
-0.00302356 0.00132281 -0.00359048
-0.0119053 0.00529123 -0.00793685
-0.0132281 0.00850377 -0.00888171
-0.0041574 0.00718096 -0.00396842
0.00472431 0.00302356 0.000377945
-0.0243775 0.0130391 -0.0147399
0.0107714 -0.00396842 -0.00699199
0.0190862 0.0306136 0.00283459
0.0198421 0.034582 -0.00566918
0.0117163 0.0041574 -0.0238105
0.00283459 -0.0306136 -0.0340151
0.0020787 -0.0349599 -0.0260782
0.0124722 0.00888171 -0.0321253
-0.0285349 0.0179524 -0.0179524
-0.00566918 0.00529123 0.0194642
-0.00793685 -0.00245664 0.0192752
-0.0166296 -0.00982658 0.00548021
-0.00944863 -0.0124722 0.0102045
0.00302356 -0.0130391 0.0311805
-0.0319364 -0.0151178 -0.0141729
-0.0396842 -0.0219208 -0.0283459
-0.0317474 -0.0234326 -0.0221098
-0.0162516 -0.0187083 -0.00302356
0.00491329 -0.0217318 0.0708647
-0.00434637 -0.00188973 0.0251334
0.0391173 0.0582036 0.048188
0.00718096 -0.00548021 -0.00604712
0.0243775 -0.00925966 -0.0149288
-0.00226767 -0.000944863 -0.00321253
-0.0181414 0.0062361 -0.0109604
-0.00396842 0.00907068 -0.00359048
0.0117163 0.0020787 0.00434637
0.0253223 0.0546131 0.0164406
0.0272121 0.0616051 0.00188973
-0.00359048 -0.0546131 -0.0487549
-0.00491329 -0.0634948 -0.0351489
0.0179524 0.013795 -0.0291018
0.0117163 0.0120942 -0.0396842
0.00812582 0.00434637 -0.0330702
-0.0396842 0.0217318 -0.0243775
-0.0213539 0.0281569 -0.0156847
-0.0287238 0.0075589 -0.0164406
-0.0376055 -0.013984 -0.0185193
-0.0517785 -0.0262672 -0.0442196
-0.0376055 -0.0283459 -0.0326923
-0.0103935 -0.0198421 0.00170075
0.0693529 0.089951 0.0752111
Vibration 4
-0.00245664 0.00831479 -0.0107714
-0.00245664 0.00453534 -0.0188973
0.000377945 0.00302356 -0.0102045
0.00340151 0.00529123 -0.00661404
0.00283459 0.00718096 -0.00680301
-0.000566918 0.0113384 0.000944863
0.00699199 0.0041574 -0.0143619
0.000566918 0.0183303 0.0213539
0.00151178 0.0249444 0.0400622
-0.00226767 0.00793685 -0.0113384
-0.0219208 0.0171965 -0.0298577
-0.0168186 0.0149288 -0.02759
0.00907068 0.00340151 -0.00604712
0.0266451 -0.00472431 0.0103935
0.0202201 -0.00188973 0.00718096
0.0143619 0.00113384 -0.00377945
-0.000377945 -0.00302356 -0.00321253
-0.0100155 -0.0351489 -0.0115273
-0.0111494 -0.0459203 -0.00472431
-0.0020787 -0.0243775 0.0103935
0.00774788 0.00944863 0.0198421
0.00869274 0.0202201 0.0132281
-0.00302356 -0.0377945 0.0168186
0.0464873 -0.0132281 0.0241885
-0.00831479 -0.00132281 -0.0130391
0.00075589 0.0119053 0.0126612
-0.00831479 0.00396842 -0.000377945
-0.00831479 -0.000377945 -0.00188973
-0.00132281 -0.00113384 0.0102045
-0.0171965 0.00188973 -0.0130391
-0.0262672 -0.00491329 -0.0268341
-0.0257003 -0.00888171 -0.02759
-0.0164406 -0.00661404 -0.0149288
-0.000377945 -0.00548021 0.0315584
0.013606 0.0262672 0.0434637
0.00340151 -0.0041574 -0.0175745
-0.00491329 0.00283459 -0.0283459
0.0107714 0.00075589 -0.0198421
-0.0408181 0.0260782 -0.0453534
-0.0317474 0.0217318 -0.0410071
0.0447865 -0.0134171 0.0255113
0.0336371 -0.00812582 0.0196532
-0.0171965 -0.0517785 -0.0230547
-0.0188973 -0.0716206 -0.0113384
0.0149288 0.0270231 0.0323143
0.0166296 0.0462983 0.020787
-0.0124722 -0.048377 0.0096376
0.00340151 -0.0451645 0.0291018
-0.00075589 -0.0309915 0.0164406
0.048377 -0.013795 0.0239995
0.0376055 -0.0175745 0.055369
0.0754001 -0.0185193 0.0122832
-0.0166296 0.00510226 -0.0113384
-0.0336371 -0.00718096 -0.0370386
-0.0326923 -0.013795 -0.0383614
-0.0158737 -0.00925966 -0.0153068
0.0173855 0.00377945 -0.00510226
Vibration 5
-0.0100155 0.00774788 -0.0192752
-0.0100155 0.00434637 -0.0168186
-0.00793685 0.00283459 -0.00850377
-0.00510226 0.00472431 -0.00321253
-0.00434637 0.0105825 -0.00585815
-0.00736993 0.00925966 -0.0170075
-0.00151178 0.0170075 0.00151178
-0.0075589 0.0100155 -0.0221098
-0.00774788 0.00982658 -0.027401
-0.00944863 0.00736993 -0.0190862
-0.0183303 0.0103935 -0.0257003
-0.00680301 0.00604712 -0.0147399
0.0143619 -0.000944863 0.00302356
0.0185193 -0.00188973 0.00548021
0.0062361 0.00283459 -0.00585815
0.0294797 -0.00680301 0.0166296
-0.00831479 -0.00245664 -0.00377945
-0.0143619 0.0119053 0.00529123
-0.0149288 0.00283459 0.00888171
-0.00982658 -0.020976 0.00359048
-0.00396842 -0.0340151 -0.00529123
-0.00321253 -0.0247554 -0.00907068
-0.0103935 -0.0325033 0.00566918
0.0627389 -0.0194642 0.0461093
-0.0102045 0.00170075 0.0130391
-0.0173855 -0.013606 -0.013984
-0.0041574 -0.00472431 0.000188973
0.00340151 0.000944863 0.00774788
-0.00132281 0 0.00151178
0.00132281 -0.00321253 0.00718096
0.0149288 0.00434637 0.0222988
0.0224877 0.0096376 0.0300466
0.0162516 0.00774788 0.0224877
-0.000566918 -0.00472431 0.00264562
-0.034393 -0.0298577 -0.0529123
0.0181414 0.0542351 0.0449755
-0.0122832 0.00302356 -0.020409
0.000188973 0.0183303 0.0100155
-0.0330702 0.0154958 -0.0379835
-0.0126612 0.0075589 -0.0185193
0.0317474 -0.0062361 0.0166296
0.0102045 0.0020787 -0.00359048
-0.0183303 0.0298577 0.00907068
-0.0196532 0.013606 0.0158737
0.000377945 -0.0519675 -0.00944863
0.00151178 -0.0357158 -0.0164406
-0.0177634 -0.0075589 0.0368497
0 -0.0221098 -0.0340151
-0.013795 -0.0772898 0.0134171
0.0769118 -0.0249444 0.0591484
0.0468652 -0.0355268 0.0676522
0.0886281 -0.00680301 0.0330702
-0.00566918 -0.0075589 -0.000377945
0.0194642 0.0062361 0.027779
0.0330702 0.0153068 0.0421409
0.0219208 0.0113384 0.0281569
0.0338261 0.0793685 0.0587705
Vibration 6
0.00377945 -0.00661404 -0.000377945
0.00359048 -0.00850377 -0.0102045
0.00377945 -0.00850377 -0.00907068
0.00359048 -0.00850377 -0.0075589
0.00113384 -0.00774788 -0.000566918
0.00245664 -0.00585815 0.00925966
-0.000566918 -0.0100155 -0.00226767
0.00321253 -0.00396842 0.0323143
0.00377945 -0.00302356 0.0532903
0.000377945 -0.00491329 0.000944863
-0.0440306 0.0096376 -0.0323143
-0.0557469 0.0151178 -0.0364717
-0.0202201 0.00585815 -0.00642507
0.0272121 -0.00907068 0.0287238
0.0364717 -0.013606 0.0317474
-0.0379835 0.0130391 -0.0158737
0.00340151 -0.00359048 -0.00396842
0 0.0162516 0.0062361
0 0.0355268 0.0187083
0.00377945 0.0340151 0.020787
0.00699199 0.00831479 0.00812582
0.00680301 -0.0103935 -0.00434637
0.00359048 0.0604712 0.0385504
-0.0062361 0.00642507 0.0134171
0.0041574 -0.00869274 -0.00491329
0.000377945 -0.0145509 -0.0181414
0.00510226 -0.0109604 -0.0117163
0.00774788 -0.00736993 -0.00869274
0.00566918 -0.0062361 -0.013984
0.0062361 -0.0113384 -0.00869274
0.0103935 -0.00812582 -0.00226767
0.0132281 -0.00472431 0.00113384
0.0115273 -0.00453534 -0.00226767
0.00510226 -0.00302356 -0.0239995
-0.0062361 -0.0219208 -0.0336371
-0.00188973 -0.00680301 -0.00226767
0.00264562 -0.00925966 -0.0160627
-0.000377945 -0.0115273 -0.00793685
-0.0706758 0.0171965 -0.0546131
-0.0916517 0.0264562 -0.062361
0.0555579 -0.0168186 0.0529123
0.0716206 -0.0239995 0.0570697
-0.00283459 0.0181414 0.00472431
-0.00264562 0.0529123 0.0272121
0.00925966 0.00472431 0.00831479
0.00925966 -0.0289128 -0.013984
0.00869274 0.0449755 0.0187083
-0.020976 0.0572587 0.0754001
0.0222988 0.101478 0.0391173
-0.0313695 0.0153068 -0.00283459
0.000188973 0.0264562 0.0600933
0.0315584 -0.0262672 0.00151178
0.00359048 -0.0141729 -0.0119053
0.0113384 -0.00831479 0.000188973
0.0164406 -0.00226767 0.00642507
0.0134171 -0.0020787 0
-0.00831479 -0.00925966 -0.00793685
Vibration 7
-0.00283459 -0.000377945 -0.00472431
-0.00264562 -0.00113384 -0.0041574
-0.0020787 -0.00170075 -0.00264562
-0.00132281 -0.00075589 0.000566918
-0.000944863 0.00075589 -0.000566918
-0.00188973 0 -0.00510226
-0.000566918 0.00302356 0.00245664
-0.00188973 0 -0.0103935
-0.0020787 -0.000188973 -0.0154958
-0.00264562 -0.000377945 -0.0041574
0.00245664 -0.00321253 0.00132281
0.00548021 -0.0041574 0.00510226
0.00302356 -0.00226767 0.00321253
-0.00321253 0.00113384 -0.00321253
-0.00604712 0.00188973 -0.00680301
0.0075589 -0.00396842 0.00831479
-0.00188973 -0.00226767 -0.00510226
-0.000188973 -0.00075589 -0.00453534
-0.00075589 0.00075589 -0.00661404
-0.00151178 0.000944863 -0.00888171
-0.00264562 -0.00188973 -0.00793685
-0.00377945 -0.00377945 -0.0062361
-0.00264562 0.00170075 0.00831479
0.00793685 -0.00321253 0.00869274
-0.00604712 -0.000566918 0.00264562
-0.00377945 0.00226767 0.00283459
0 0.00226767 0.00245664
0.00132281 -0.00075589 0.00245664
-0.000377945 -0.00377945 0.00491329
0.00321253 0.00548021 0.00188973
0.0075589 0.00548021 0.00151178
0.00888171 0.00226767 0.00151178
0.00566918 -0.000944863 0.00188973
0.000377945 -0.00793685 0.0113384
-0.00529123 0.00491329 0.00226767
0.000377945 0.00888171 0.00793685
-0.00302356 -0.00151178 -0.00529123
-0.000188973 0.00377945 0.00566918
0.00434637 -0.00491329 0.00283459
0.00982658 -0.00661404 0.00944863
-0.00585815 0.00283459 -0.00529123
-0.0105825 0.0041574 -0.0113384
0.000566918 0.000377945 -0.00377945
0.00283459 0.00283459 -0.00774788
-0.00604712 -0.00151178 -0.0103935
-0.00472431 -0.00604712 -0.00680301
-0.0130391 -0.313695 -0.33656
-0.0462983 -0.152879 0.471865
0.048188 0.467329 -0.0646286
0.013795 -0.00566918 0.0147399
0.00453534 -0.00888171 0.00396842
0.0062361 0.00491329 0.00831479
0.0020787 0.00812582 0.00188973
0.0102045 0.00812582 0.00132281
0.0122832 0.00226767 0.00132281
0.00661404 -0.00359048 0.00188973
0.00604712 0.0168186 0.0132281
Vibration 8
-0.00831479 -0.00566918 -0.0272121
-0.00812582 -0.00888171 -0.0192752
-0.00680301 -0.0102045 -0.0109604
-0.00491329 -0.00793685 -0.00453534
-0.00170075 -0.00188973 -0.0128501
-0.00510226 -0.00491329 -0.0319364
0.00170075 0.00604712 -0.00396842
-0.00585815 -0.00774788 -0.0565028
-0.00680301 -0.0113384 -0.0803134
-0.0124722 -0.00283459 -0.0236216
-0.0221098 -0.00736993 -0.020598
-0.020787 -0.00585815 -0.00680301
-0.00907068 0.000377945 0.0041574
-0.00283459 0.00661404 -0.00188973
-0.00491329 0.00491329 -0.0160627
-0.00491329 -0.000188973 0.020598
-0.00699199 -0.00793685 -0.00661404
-0.00869274 0.0147399 0.00340151
-0.00831479 0.0338261 0.013606
-0.00661404 0.0291018 0.0132281
-0.00548021 -0.00075589 -0.000377945
-0.00566918 -0.0194642 -0.0105825
-0.00642507 0.0574477 0.0262672
0.0185193 0.00151178 0.0438416
0.00188973 -0.0177634 -0.00812582
0.0202201 0.00869274 0.0325033
0.0153068 0.00170075 0.020598
0.00151178 -0.0102045 0.00661404
-0.00283459 -0.0154958 0.00774788
0.0255113 0.0096376 0.0251334
0.0211649 0.00434637 0.0141729
0.00661404 -0.00831479 -0.00170075
-0.00283459 -0.0154958 -0.00510226
-0.00132281 -0.0238105 0.0213539
0.0364717 0.0334482 0.0763449
0.013984 -0.0270231 -0.0170075
-0.0102045 -0.0102045 -0.020976
0.00283459 0.00850377 0.00831479
-0.0298577 -0.0126612 -0.0279679
-0.02759 -0.0096376 -0.00359048
0.00377945 0.0122832 0.00453534
0.000188973 0.00944863 -0.020598
-0.0100155 0.0187083 0.00396842
-0.00982658 0.0538572 0.0226767
-0.0041574 -0.00812582 -0.00245664
-0.00472431 -0.041574 -0.020787
0.00226767 0.0939194 0.0625499
-0.0249444 0.0799354 -0.0132281
0.00302356 0.0228657 0.0381725
0.0243775 -0.00245664 0.0604712
0.0096376 -0.0075589 0.0555579
0.0383614 0.0154958 0.0334482
0.0374166 0.0200311 0.0385504
0.0292908 0.0103935 0.0183303
0.00321253 -0.0126612 -0.0109604
-0.0130391 -0.0247554 -0.0164406
0.0328812 -0.0160627 0
Vibration 9
-0.0096376 0.0100155 -0.00642507
-0.00925966 0.00604712 -0.0149288
-0.00548021 0.00377945 -0.0124722
-0.00113384 0.00529123 -0.0119053
-0.00264562 0.00869274 -0.0075589
-0.00661404 0.013984 0.00453534
0.000377945 0.00604712 -0.0134171
-0.00510226 0.027779 0.0298577
-0.00340151 0.0427078 0.0542351
-0.00793685 0.00944863 -0.00604712
0.0175745 0.0020787 0.0115273
0.0272121 -0.00245664 0.0141729
0.00925966 0.000377945 -0.00113384
-0.0194642 0.00831479 -0.020976
-0.027401 0.0120942 -0.0228657
0.0234326 -0.00548021 0.00548021
-0.00566918 -0.00113384 -0.00472431
-0.0156847 0.0394953 0.0177634
-0.0168186 0.0379835 0.0302356
-0.00774788 -0.00661404 0.0192752
0.00226767 -0.0506447 -0.00472431
0.00283459 -0.0472432 -0.0166296
-0.00888171 -0.00831479 0.0349599
0.00982658 -0.00548021 -0.00793685
0.0226767 -0.00396842 -0.0113384
0.0194642 -0.00888171 -0.00188973
0.00661404 -0.00925966 -0.00132281
-0.000188973 -0.00132281 -0.00453534
0.00132281 0.00510226 -0.0130391
-0.000188973 -0.0177634 0.00264562
-0.0143619 -0.0179524 0.00340151
-0.020976 -0.00944863 0.000566918
-0.013606 -0.000944863 -0.00321253
0.000566918 0.00774788 -0.0221098
0.027401 -0.0132281 0.00774788
0.0171965 -0.0230547 -0.0238105
-0.0111494 0.00491329 -0.0181414
0.00434637 0.00188973 -0.0211649
0.0309915 -0.000377945 0.0228657
0.048566 -0.00831479 0.0283459
-0.0349599 0.0111494 -0.034393
-0.048188 0.0170075 -0.0360938
-0.0226767 0.0714316 0.0249444
-0.0245664 0.0716206 0.047999
0.00907068 -0.0867384 -0.0145509
0.0109604 -0.0810692 -0.0360938
-0.0181414 -0.0162516 0.0309915
-0.0128501 -0.0122832 0.0504557
0.00359048 0.0020787 0.0389284
0.0289128 -0.0120942 0.00359048
0.00245664 -0.0215429 -0.0325033
-0.00925966 0.0164406 -0.00264562
0.00529123 -0.0243775 0.00529123
-0.0202201 -0.0251334 0.00604712
-0.0317474 -0.0096376 0.000944863
-0.0190862 0.00585815 -0.00566918
0.0111494 -0.0387394 -0.0294797
Vibration 10
-0.0075589 -0.00396842 -0.0153068
-0.00699199 -0.00888171 -0.0311805
-0.00283459 -0.0117163 -0.0226767
0.00170075 -0.0075589 -0.0111494
-0.00075589 -0.00188973 -0.00396842
-0.00434637 0.00113384 0.000944863
0.000944863 0.000188973 -0.00188973
-0.00283459 0.0143619 0.0268341
-0.00113384 0.0279679 0.0502667
-0.00699199 -0.00321253 -0.0111494
0.0160627 -0.0154958 0.0122832
0.0221098 -0.0173855 0.020409
0.00264562 -0.00699199 0.00434637
-0.0230547 0.00548021 -0.020409
-0.0270231 0.0062361 -0.027401
0.0124722 -0.0103935 0.0164406
-0.00321253 -0.0124722 -0.0200311
-0.0075589 -0.0330702 -0.0264562
-0.00736993 -0.0154958 -0.0145509
-0.00302356 0.0239995 0.00453534
0.000944863 0.0383614 0.00831479
0.000944863 0.0196532 -0.0041574
-0.00283459 0.0536682 0.0196532
-0.00680301 -0.000377945 -0.000188973
-0.0257003 -0.0181414 -0.00831479
-0.0149288 -0.00585815 -0.00396842
0.000188973 -0.0041574 -0.00283459
0.00699199 -0.0115273 0.000566918
0.00340151 -0.0188973 0.00736993
0.00850377 0.00491329 -0.00510226
0.0245664 0.0062361 -0.00359048
0.0313695 -0.00170075 -0.000566918
0.0224877 -0.0109604 0.00132281
0.00566918 -0.0300466 0.0291018
-0.0211649 0.00340151 -0.00718096
0.0075589 0.0253223 0.0158737
-0.00925966 -0.0107714 -0.0442196
0.00434637 -0.00188973 -0.00321253
0.0300466 -0.0241885 0.0234326
0.0417629 -0.0268341 0.0389284
-0.0389284 0.0143619 -0.0334482
-0.0449755 0.0143619 -0.0438416
-0.0113384 -0.0600933 -0.0396842
-0.0111494 -0.0304246 -0.0187083
0.00453534 0.0657625 0.0221098
0.00377945 0.0323143 0.000188973
0.00642507 0.0837149 0.048188
-0.0234326 0.0731324 -0.00925966
0.00793685 0.0300466 0.0298577
0.0075589 -0.00642507 0.0151178
-0.0102045 -0.0126612 -0.0317474
-0.0296687 0.0239995 0.0062361
0.00264562 0.0111494 -0.00812582
0.0315584 0.013795 -0.00491329
0.0438416 -0.000944863 0.00075589
0.0279679 -0.0175745 0.00396842
0.0374166 0.061794 0.0425188
Vibration 11
-0.0156847 0.00699199 0.0262672
-0.0151178 -0.00472431 0.0436527
-0.00396842 -0.0115273 0.0308025
0.00642507 -0.00699199 0.0168186
0.0103935 0.00151178 0.00604712
-0.00359048 0.0107714 0.0111494
0.0251334 -0.000944863 -0.0096376
-0.00283459 0.0264562 -0.00548021
-0.00226767 0.0430858 -0.0192752
-0.0257003 0.00925966 0.0115273
-0.0160627 0.0162516 0.00472431
-0.0102045 0.0113384 -0.00736993
-0.013606 -0.00151178 -0.0113384
-0.0317474 -0.00585815 -0.0119053
-0.0379835 0.000188973 -0.000944863
0.00226767 -0.00925966 -0.0177634
-0.00340151 -0.0149288 0.0188973
0.0132281 -0.0185193 0.00850377
0.0151178 -0.00396842 -0.0062361
0 0.0149288 -0.0100155
-0.0170075 0.013606 -0.00188973
-0.0181414 -0.00188973 0.0126612
0.00188973 0.0393063 -0.0234326
0.0428968 -0.0428968 0.0141729
0.0270231 0.0147399 0.020976
0.0134171 -0.00132281 -0.00245664
0.00718096 -0.00377945 -0.00604712
0.0134171 -0.00132281 -0.00075589
0.013795 -0.00283459 0.00302356
-0.00491329 -0.0096376 -0.0183303
-0.0096376 -0.0124722 -0.0241885
-0.000944863 -0.00850377 -0.0158737
0.0109604 -0.00321253 -0.0041574
0.0132281 -0.00340151 -0.00736993
0.0103935 -0.0128501 -0.0153068
-0.00585815 -0.0113384 0.00925966
-0.0239995 -0.00888171 0.0595264
0.0355268 -0.00812582 -0.0154958
-0.0111494 0.0255113 0.0102045
-0.00132281 0.0164406 -0.0115273
-0.0404401 -0.013606 -0.020409
-0.0514005 -0.00321253 -0.00075589
0.0253223 -0.0304246 0.0128501
0.0283459 -0.00566918 -0.013795
-0.0289128 0.0257003 -0.00585815
-0.0317474 -0.00151178 0.0198421
0.0213539 0.0442196 -0.027779
-0.0111494 0.0457314 -0.0258892
-0.00359048 0.0489439 -0.0281569
0.0729434 -0.0519675 0.0219208
0.0164406 -0.0716206 0.0421409
0.0695419 -0.0294797 0.00075589
-0.0105825 -0.0119053 -0.0239995
-0.0202201 -0.0173855 -0.0351489
-0.0041574 -0.0102045 -0.0190862
0.0170075 -0.000944863 0.00151178
-0.0368497 -0.0383614 -0.0181414
Vibration 12
0.0075589 -0.00831479 -0.0308025
0.00718096 -0.00170075 -0.0425188
0.00132281 0.00226767 -0.0160627
-0.00434637 0.00075589 0.0217318
-0.0075589 0.00718096 0.0311805
0.00170075 -0.00585815 -0.000188973
-0.0236216 0.0230547 0.0682191
0.000944863 -0.0154958 0.00510226
0.000188973 -0.0260782 0.00831479
0.0075589 -0.00831479 -0.0323143
0.00680301 -0.020409 -0.0154958
-0.00132281 -0.0147399 -0.00245664
-0.00831479 0.00434637 -0.00699199
-0.0096376 0.0179524 -0.0247554
-0.00113384 0.00982658 -0.0368497
-0.0170075 0.00944863 0.0102045
0.00132281 0.00264562 -0.0128501
-0.00529123 -0.00359048 -0.0120942
-0.00604712 -0.00585815 -0.00529123
0 -0.00075589 0.00113384
0.00661404 0.0062361 0.00075589
0.00699199 0.00736993 -0.00661404
-0.000566918 -0.00264562 0.00907068
0.00491329 0.0232436 0.034582
0.0468652 0.0366607 0.0653845
0.0213539 0.00944863 0.013984
0.00642507 0.000566918 -0.000188973
0.0177634 0.00491329 0.00982658
0.0117163 0.00359048 0.00321253
-0.020787 -0.0122832 -0.0270231
-0.0319364 -0.0181414 -0.0389284
-0.0096376 -0.00774788 -0.0171965
0.0156847 0.00396842 0.00736993
0.0109604 0.00302356 -0.0268341
0.0183303 -0.00718096 -0.00245664
-0.0298577 -0.0134171 0.0459203
0.0122832 0 -0.0701088
-0.0366607 0.0349599 0.0873053
0.0124722 -0.0357158 -0.0122832
-0.00113384 -0.0243775 0.0109604
-0.0171965 0.034393 -0.0296687
-0.000566918 0.0194642 -0.0489439
-0.00944863 -0.00604712 -0.0162516
-0.0111494 -0.0111494 -0.00472431
0.0113384 0.0103935 0.00604712
0.0120942 0.0126612 -0.00680301
-0.00510226 -0.00075589 0.013606
-0.000944863 -0.0020787 0.00774788
0.00396842 -0.00680301 0.0122832
0.00718096 0.0188973 0.0599043
-0.00151178 0.0156847 0.0393063
0.0238105 0.0440306 0.0234326
-0.0336371 -0.0185193 -0.0396842
-0.0568808 -0.0304246 -0.0638727
-0.013984 -0.0096376 -0.0213539
0.0308025 0.0102045 0.0219208
-0.0971319 -0.0612271 -0.0126612
Vibration 13
-0.00944863 0.0075589 0.0122832
-0.0100155 0.00377945 0.0096376
-0.0062361 0.00132281 0.00264562
-0.000377945 0.00491329 0.00491329
-0.00831479 0.013984 0.0304246
-0.00736993 0.00869274 0.0132281
-0.0226767 0.0306136 0.0659514
-0.00869274 0.000566918 -0.00831479
-0.0102045 -0.0100155 -0.0325033
-0.0075589 0.00604712 0.0105825
-0.00888171 0.0117163 0.00245664
0.00113384 0.00680301 0.00321253
0.0111494 -0.00359048 0.0111494
0.0128501 -0.00944863 0.0190862
0.00340151 -0.00396842 0.0187083
0.0228657 -0.00869274 0.0117163
-0.00585815 -0.0062361 -0.00226767
-0.00718096 -0.00566918 -0.00132281
-0.00736993 -0.0020787 0.00226767
-0.0062361 0.000188973 0.0041574
-0.00491329 -0.00793685 0
-0.00491329 -0.0109604 -0.00340151
-0.0062361 0.0130391 0.0117163
-0.0173855 -0.00170075 -0.0258892
-0.00642507 0 -0.054991
-0.00642507 -0.0062361 -0.0149288
-0.0149288 -0.00850377 -0.0183303
0.0211649 0.00359048 0.0119053
0.013606 -0.00302356 0.0105825
-0.0444086 -0.0215429 -0.0523454
-0.0257003 -0.0154958 -0.0421409
0.0289128 0.00566918 0.0100155
0.0512116 0.013606 0.034582
0.0151178 -0.0151178 0.00925966
0.0096376 -0.00359048 0.0115273
0.0461093 0.00907068 -0.0602823
-0.0124722 0.00245664 0.0105825
-0.0279679 0.0364717 0.0772898
-0.0173855 0.0202201 -0.00396842
0.000188973 0.0107714 -0.00264562
0.0222988 -0.0185193 0.0264562
0.00453534 -0.00812582 0.0245664
-0.00831479 -0.00718096 -0.00264562
-0.00850377 0.000566918 0.00396842
-0.00377945 -0.0102045 -0.000188973
-0.00396842 -0.0154958 -0.00585815
-0.00302356 0.0196532 0.0173855
-0.0166296 0.0185193 0.00925966
0.000566918 0.0126612 0.0153068
-0.0219208 0.00132281 -0.0389284
-0.00529123 0.00718096 -0.0557469
-0.0525344 -0.00888171 -0.0096376
-0.0797464 -0.0351489 -0.0859825
-0.0514005 -0.0260782 -0.0718096
0.0523454 0.0145509 0.0283459
0.0880612 0.0260782 0.069164
0.0823921 0.00982658 -0.0300466
Vibration 14
-0.0156847 0.00888171 -0.00812582
-0.0151178 0.000377945 -0.00907068
-0.00888171 -0.0041574 -0.00491329
-0.00340151 -0.000944863 0.00377945
0 0.00699199 -0.00793685
-0.00944863 0.0113384 -0.00907068
0.0120942 0.00718096 -0.0168186
-0.00869274 0.0226767 -0.0132281
-0.00793685 0.0355268 -0.0188973
-0.0103935 0.00699199 -0.00302356
-0.0219208 0.0151178 -0.0179524
0.00151178 0.00529123 -0.00302356
0.034204 -0.0107714 0.0239995
0.0457314 -0.0185193 0.0377945
0.0230547 -0.00831479 0.0239995
0.0625499 -0.0222988 0.0423299
-0.00925966 -0.0102045 -0.00642507
-0.0100155 -0.0143619 -0.00793685
-0.0100155 -0.00888171 -0.00604712
-0.0100155 0.00151178 -0.00188973
-0.00982658 -0.000377945 -0.00283459
-0.00982658 -0.00642507 -0.00529123
-0.00982658 0.0173855 0.0041574
-0.0504557 0.0156847 -0.0591484
0.0296687 0.013984 0.0498888
0.0175745 0.00359048 0.0105825
0.013606 0.00075589 0.00642507
0.00566918 -0.0020787 -0.000188973
0.0041574 -0.00340151 0.00075589
0.0120942 0 0.00529123
-0.000188973 -0.00566918 -0.00585815
-0.0100155 -0.0096376 -0.0154958
-0.00604712 -0.00736993 -0.0117163
0.00453534 -0.00925966 -0.00113384
0.00925966 -0.00736993 -0.00982658
-0.0268341 -0.0149288 0.041385
-0.020787 -0.00321253 -0.013795
0.0192752 0.00302356 -0.0170075
-0.0493218 0.0292908 -0.0402512
-0.00680301 0.0105825 -0.0126612
0.0750221 -0.0338261 0.061983
0.0323143 -0.013795 0.0340151
-0.0100155 -0.0194642 -0.00982658
-0.00982658 -0.0109604 -0.00680301
-0.00982658 0.00434637 -0.00075589
-0.0102045 -0.00699199 -0.00529123
-0.00396842 0.0232436 0.00774788
-0.0219208 0.0228657 0.00283459
-0.00377945 0.0196532 0.00661404
-0.0685971 0.0238105 -0.0816362
-0.013606 0.0430858 -0.150611
-0.147021 0.00699199 -0.0160627
0.0190862 0.00321253 0.0120942
-0.00245664 -0.00718096 -0.0075589
-0.0211649 -0.0145509 -0.0255113
-0.0124722 -0.0102045 -0.0179524
-0.0721875 -0.0387394 0.00226767
Vibration 15
-0.00226767 -0.00548021 -0.00529123
-0.00170075 -0.000377945 -0.0107714
-0.00529123 0.00132281 0.00170075
-0.00718096 0.00321253 0.0224877
-0.00642507 0.00075589 0.0168186
-0.00377945 -0.00491329 0.00566918
-0.0111494 0.00132281 0.0222988
-0.00453534 -0.0130391 0.00491329
-0.00548021 -0.0255113 0.00321253
-0.000188973 -0.00680301 -0.0062361
-0.000944863 -0.0096376 -0.00245664
-0.00302356 -0.00831479 0.000566918
-0.00453534 -0.00434637 -0.000566918
-0.00359048 -0.00151178 -0.00377945
-0.00151178 -0.00340151 -0.00661404
-0.00774788 -0.00283459 0.00264562
-0.00510226 -0.00188973 0
-0.00718096 -0.0041574 0.000188973
-0.00736993 -0.00434637 0.00283459
-0.00585815 -0.00188973 0.00510226
-0.00377945 -0.00340151 0.00340151
-0.00377945 -0.00340151 0.000566918
-0.00585815 0.00283459 0.0103935
-0.00245664 0.000377945 0.00869274
0.0795575 0.105258 -0.00661404
0.0226767 0.020598 -0.0202201
0.00472431 0.0385504 0.0153068