[Molden Format]
[FREQ]
-23.4
-10.2
18.1
19.7
25.0
29.8
36.8
44.2
50.7
61.0
70.4
82.2
89.1
101.5
103.8
108.3
128.0
136.3
161.3
173.8
179.9
200.2
211.0
216.7
224.8
238.6
258.8
263.7
290.0
310.5
325.5
334.8
344.4
348.1
356.0
360.2
381.0
394.2
412.7
414.5
430.7
449.2
464.9
485.0
495.4
524.3
535.6
547.3
556.6
575.8
583.3
588.2
614.3
615.9
638.5
647.2
650.8
672.8
689.4
713.7
717.5
743.5
755.6
763.1
789.6
802.8
816.0
829.4
843.2
862.8
885.0
885.4
898.5
903.6
929.7
964.2
972.0
980.0
998.5
1008.7
1010.0
1014.5
1016.3
1018.9
1035.8
1042.8
1068.7
1074.4
1076.7
1081.4
1089.3
1129.5
1151.1
1180.8
1181.3
1183.9
1188.7
1200.1
1207.0
1226.1
1244.9
1248.4
1262.5
1268.7
1269.6
1281.5
1284.8
1286.9
1295.8
1300.9
1311.1
1320.5
1329.8
1334.5
1340.1
1348.7
1350.1
1352.2
1361.1
1368.8
1384.9
1394.7
1426.7
1480.2
1499.3
1518.1
1526.3
1527.3
1528.2
1556.0
1565.9
1597.7
1601.4
1647.2
1677.4
1696.3
1700.3
1703.0
1707.3
1707.4
1708.2
1842.0
1891.8
2454.9
2650.3
2654.4
2665.4
2672.2
2693.5
2730.0
2733.4
2742.5
2743.0
2743.5
2744.5
2746.3
2747.4
2752.2
2758.3
2761.6
2762.4
2764.0
2766.1
2769.5
2779.4
       
[FR-COORD]
C -1.7565 -2.5842 -1.45207
C 0.878345 -2.5842 -1.45207
C 2.16619 -0.264751 -1.45207
N 0.952611 1.9708 -1.48022
C -1.61137 1.98402 -1.5235
C -3.05871 -0.273254 -1.47002
N -2.78413 4.28571 -1.90541
C -5.73324 -0.166485 -1.47814
N -7.91776 -0.0714316 -1.46416
C -3.10841 -5.00173 -1.44129
C -2.65544 -6.74802 -3.37883
C -3.9157 -9.04442 -3.40642
C -5.63573 -9.57486 -1.45263
C -6.10306 -7.86466 0.493974
C -4.82409 -5.56165 0.478857
O -6.7244 -11.8854 -1.69754
C 4.94636 -0.142107 -1.35985
C 6.26028 -1.54939 0.445786
C 8.8768 -1.3538 0.601311
C 10.1928 0.229602 -1.05447
C 8.87132 1.60797 -2.87805
C 6.25235 1.42788 -3.03244
C 12.9958 0.424432 -0.888738
C -8.60147 -12.5567 0.101289
C -2.89412 6.27068 -0.534415
C -2.17867 6.78506 2.2312
C -0.372276 5.10831 3.52944
C 2.13917 5.00418 2.73632
C 2.88051 6.71476 0.588272
C -1.18089 3.7375 5.62571
C 0.532525 2.20248 6.91092
C 3.03093 2.04374 6.09418
C 3.83085 3.43892 4.0083
O 4.9628 6.34608 -0.528745
O -3.19968 8.54988 3.23634
O -4.04496 8.24242 -1.6862
H 1.92884 -4.34845 -1.45207
H 6.09493 4.89968 -0.168186
H -1.32338 -6.28485 -4.88645
H -3.60768 -10.4186 -4.90006
H -7.43437 -8.27643 1.99687
H -5.17161 -4.18971 1.98232
H 5.23492 -2.78621 1.73609
H 9.90141 -2.44701 2.00953
H 9.88799 2.83138 -4.1831
H 5.20544 2.53167 -4.43405
H 13.7003 0.162516 1.04691
H 13.7128 2.25841 -1.54958
H 13.9023 -1.03576 -2.06434
H -9.1956 -14.4303 -0.56654
H -10.1898 -11.2303 0.0432747
H -7.7868 -12.688 1.99763
H -3.11975 3.90984 6.30337
H -0.0733214 1.1601 8.58049
H 4.36338 0.840928 7.10065
H 5.77954 3.27244 3.36655
H -4.36829 9.64856 -0.451267

[FR-NORM-COORD]
Vibration 1
-0.00302356 -0.00245664 -0.00113384
-0.00302356 0.000944863 -0.0062361
-0.00566918 0.00245664 -0.00264562
-0.00925966 0.000566918 0.00359048
-0.00944863 -0.0020787 0.00680301
-0.00642507 -0.0041574 0.00585815
-0.0134171 -0.00434637 0.00982658
-0.00642507 -0.00793685 0.0107714
-0.00661404 -0.0111494 0.0149288
0 -0.0041574 -0.00264562
-0.00340151 0.000566918 -0.0075589
-0.000188973 -0.00113384 -0.00831479
0.00642507 -0.0075589 -0.00434637
0.00944863 -0.0120942 0.000377945
0.0062361 -0.0102045 0.00113384
0.00925966 -0.00888171 -0.00548021
-0.00585815 0.00661404 -0.00472431
0.00075589 -0.0181414 -0.0287238
0.000566918 -0.0151178 -0.0302356
-0.00548021 0.0126612 -0.00869274
-0.0117163 0.0383614 0.0156847
-0.0117163 0.0360938 0.0181414
-0.00548021 0.0149288 -0.0107714
0.0160627 -0.0154958 -0.000944863
0.0020787 0.00510226 -0.00264562
0.0251334 0.02759 -0.0126612
0.00245664 0.0143619 0.0020787
-0.00075589 -0.0298577 -0.00264562
0.00642507 -0.0634948 -0.0283459
-0.0126612 0.0489439 0.0187083
-0.0321253 0.0360938 0.0292908
-0.0374166 -0.0115273 0.0228657
-0.0215429 -0.0442196 0.00699199
0.0438416 -0.0351489 0.0311805
0.0602823 0.0582036 -0.0304246
-0.00642507 -0.00245664 -0.00736993
-0.00132281 0.0020787 -0.0130391
0.0789905 0.00925966 0.096376
-0.00888171 0.00566918 -0.0107714
-0.00264562 0.00226767 -0.0120942
0.0141729 -0.0168186 0.00321253
0.00850377 -0.013606 0.00472431
0.00585815 -0.0402512 -0.0457314
0.00548021 -0.034393 -0.0489439
-0.0170075 0.0612271 0.0326923
-0.0166296 0.0587705 0.0393063
-0.00359048 0.00472431 -0.0128501
-0.00774788 0.0190862 -0.00151178
-0.00548021 0.0222988 -0.0198421
0.0177634 -0.0154958 -0.0020787
0.0132281 -0.0185193 0.00585815
0.0219208 -0.0168186 -0.00359048
-0.00812582 0.0859825 0.0224877
-0.0436527 0.0631168 0.0423299
-0.0536682 -0.0236216 0.0302356
-0.0266451 -0.0839038 0.00151178
0.0128501 0.0107714 -0.0171965
Vibration 2
-0.00585815 -0.00812582 -0.00188973
-0.00585815 -0.00793685 0.00151178
-0.00604712 -0.00774788 0.00944863
-0.00661404 -0.00793685 0.013984
-0.00661404 -0.00774788 0.0100155
-0.0062361 -0.00812582 0.00188973
-0.00642507 -0.00774788 0.0134171
-0.0062361 -0.00869274 -0.00283459
-0.00642507 -0.0096376 -0.00736993
-0.00585815 -0.00812582 -0.00869274
-0.00472431 -0.00396842 -0.0120942
-0.00453534 -0.00396842 -0.0177634
-0.00585815 -0.00812582 -0.0200311
-0.00736993 -0.0122832 -0.0168186
-0.00736993 -0.0122832 -0.0111494
-0.00566918 -0.00774788 -0.0255113
-0.0062361 -0.00699199 0.0134171
-0.00699199 -0.0188973 0.00510226
-0.00736993 -0.0183303 0.00907068
-0.00661404 -0.00585815 0.0215429
-0.00548021 0.00661404 0.0304246
-0.00529123 0.00604712 0.0264562
-0.00680301 -0.00604712 0.0262672
-0.00831479 -0.0105825 -0.0294797
-0.00170075 -0.00548021 0.0107714
-0.0020787 -0.0020787 0.0100155
0.0183303 0.0188973 0.00850377
0.0075589 0.00850377 -0.0243775
-0.0285349 -0.0239995 -0.0633058
0.0487549 0.0498888 0.0408181
0.0667073 0.0682191 0.0387394
0.054991 0.0559359 0.00510226
0.0253223 0.0262672 -0.0262672
-0.0132281 0.00585815 -0.0453534
-0.0202201 -0.0141729 0.0134171
-0.000944863 -0.00604712 0.00888171
-0.00585815 -0.00774788 -0.0020787
0.0268341 0.047999 -0.00434637
-0.00396842 -0.000566918 -0.0103935
-0.00359048 -0.00075589 -0.020409
-0.00831479 -0.0153068 -0.0185193
-0.00850377 -0.0153068 -0.00850377
-0.0075589 -0.0285349 -0.00453534
-0.00812582 -0.02759 0.00245664
-0.00491329 0.0160627 0.0396842
-0.00472431 0.0158737 0.0334482
-0.0107714 -0.00359048 0.0279679
-0.00472431 -0.00736993 0.0249444
-0.00510226 -0.00812582 0.0300466
-0.00944863 -0.00831479 -0.0349599
-0.00699199 -0.00888171 -0.02759
-0.0103935 -0.0160627 -0.0289128
0.0582036 0.0600933 0.0661404
0.0901399 0.0924076 0.062172
0.069164 0.0695419 0.00245664
0.0154958 0.0149288 -0.0534792
-0.0075589 -0.00793685 0.00888171
Vibration 3
-0.00869274 -0.00151178 -0.0102045
-0.00888171 -0.000566918 -0.00982658
-0.0096376 0 -0.00888171
-0.0113384 -0.00075589 -0.0111494
-0.0109604 -0.00170075 -0.0105825
-0.0100155 -0.0020787 -0.0117163
-0.0124722 -0.000944863 -0.0041574
-0.0102045 -0.00377945 -0.0132281
-0.0102045 -0.00566918 -0.0153068
-0.00869274 -0.00151178 -0.00453534
-0.0158737 -0.00377945 -0.00396842
-0.0158737 -0.00377945 0.00359048
-0.00831479 -0.00170075 0.0107714
-0.00151178 0.000944863 0.0102045
-0.00170075 0.000944863 0.00245664
-0.00888171 -0.00226767 0.0181414
-0.0102045 0.00472431 0.00170075
-0.013606 -0.0107714 -0.00774788
-0.0154958 -0.000188973 0.0096376
-0.013606 0.0266451 0.0368497
-0.00944863 0.0408181 0.0445975
-0.00774788 0.0294797 0.0270231
-0.0158737 0.0402512 0.0583925
0.000566918 -0.00151178 0.0283459
0 -0.00264562 -0.000188973
0.0202201 -0.0075589 -0.00434637
0.020598 -0.0170075 -0.0160627
0.020787 -0.00661404 -0.0170075
0.0115273 0.00472431 -0.0107714
0.0222988 -0.0357158 -0.0279679
0.0249444 -0.0430858 -0.0400622
0.0258892 -0.0308025 -0.0396842
0.0236216 -0.0124722 -0.0283459
0.0249444 0.034771 0.00359048
0.0366607 -0.00226767 0.00302356
-0.00510226 0.00075589 0.0109604
-0.00850377 -0.000188973 -0.00944863
0.0478101 0.0557469 0.0145509
-0.0215429 -0.00548021 -0.0096376
-0.0215429 -0.00566918 0.00396842
0.00377945 0.00283459 0.0154958
0.00359048 0.00283459 0.00188973
-0.0151178 -0.0304246 -0.02759
-0.0183303 -0.0120942 0.00245664
-0.00774788 0.0604712 0.0642507
-0.00491329 0.0408181 0.0334482
-0.0302356 0.0430858 0.0640617
-0.0188973 0.0434637 0.0644397
0.000377945 0.0445975 0.0653845
0.000566918 -0.00396842 0.0351489
-0.00188973 -0.0041574 0.0325033
0.00925966 0.00396842 0.0249444
0.0217318 -0.0457314 -0.027401
0.0262672 -0.0591484 -0.0496998
0.0281569 -0.0360938 -0.0491329
0.0241885 -0.00434637 -0.0292908
0.00831479 0.000566918 0.0147399
Vibration 4
-0.00850377 -0.00793685 0.0192752
-0.00831479 -0.00396842 0.020787
-0.0117163 -0.00226767 0.0168186
-0.013984 -0.00377945 0.0141729
-0.0141729 -0.0075589 0.0177634
-0.0113384 -0.00944863 0.0202201
-0.0188973 -0.0102045 0.0156847
-0.0115273 -0.0124722 0.0217318
-0.0115273 -0.0151178 0.0234326
-0.00377945 -0.0105825 0.0102045
0.0160627 -0.00888171 0.0130391
0.0198421 -0.0105825 0
0.00264562 -0.0143619 -0.0160627
-0.0162516 -0.0170075 -0.0183303
-0.0192752 -0.0153068 -0.00491329
0.00736993 -0.0153068 -0.0285349
-0.0115273 0 0.0119053
-0.0100155 0.0279679 0.0323143
-0.00982658 0.0308025 0.0268341
-0.0117163 0.00491329 0.00075589
-0.013606 -0.0241885 -0.0202201
-0.013795 -0.0266451 -0.0147399
-0.0117163 0.00869274 -0.00566918
-0.0171965 -0.0141729 -0.0538572
-0.00434637 -0.000377945 0.00302356
0.0262672 0.0219208 -0.00888171
0.0185193 0.013606 -0.00869274
0.0226767 0.0226767 0.00359048
0.0330702 0.0349599 0.0179524
0.00907068 -0.00188973 -0.0226767
0.00585815 -0.00491329 -0.0217318
0.0113384 0.00736993 -0.00718096
0.0198421 0.020598 0.00491329
0.0132281 0.0062361 -0.0096376
0.0587705 0.0466762 -0.0198421
-0.0149288 -0.00869274 -0.000377945
-0.00529123 -0.00226767 0.0236216
-0.0130391 -0.0221098 -0.0391173
0.0287238 -0.00585815 0.0251334
0.0353379 -0.00907068 0.00170075
-0.0285349 -0.020409 -0.0300466
-0.0338261 -0.0173855 -0.0062361
-0.00907068 0.047999 0.0523454
-0.00850377 0.0529123 0.0430858
-0.0147399 -0.0449755 -0.0404401
-0.0151178 -0.0495108 -0.0311805
-0.0062361 0.0134171 -0.00718096
-0.0160627 0.00869274 -0.0109604
-0.0122832 0.00793685 -0.00529123
-0.0145509 -0.0107714 -0.0659514
-0.0128501 -0.0096376 -0.0697309
-0.0408181 -0.0211649 -0.0442196
0.00491329 -0.0115273 -0.0332592
-0.00113384 -0.0168186 -0.0319364
0.00907068 0.00642507 -0.00548021
0.0243775 0.0309915 0.0162516
0.00548021 0.00434637 -0.0096376
Vibration 5
-0.0166296 0.0132281 -0.013795
-0.0166296 0.00944863 -0.0119053
-0.0132281 0.00736993 -0.00283459
-0.00925966 0.00925966 0.00170075
-0.00944863 0.0130391 -0.00075589
-0.0132281 0.0149288 -0.00774788
-0.00604712 0.0154958 0.00377945
-0.0130391 0.0177634 -0.00699199
-0.0128501 0.0194642 -0.0062361
-0.0151178 0.0122832 -0.0183303
-0.0232436 0.0221098 -0.0291018
-0.00736993 0.013606 -0.0238105
0.0177634 -0.00548021 -0.00661404
0.0194642 -0.0115273 -0.000944863
0.00245664 -0.0020787 -0.00718096
0.0389284 -0.0164406 0.00170075
-0.0130391 -0.00226767 0.00340151
-0.0255113 0.000566918 0.0147399
-0.0243775 -0.0156847 0.0179524
-0.0115273 -0.034771 0.00982658
0.000377945 -0.0362827 0.000188973
-0.00075589 -0.0198421 -0.00302356
-0.0102045 -0.0546131 0.0113384
0.0933525 -0.0546131 0.0438416
0.000377945 0.0151178 0.00491329
0.00566918 0.0130391 0.00396842
0.00340151 0.00831479 0.000944863
0.00396842 0.00907068 0.00264562
0.00793685 0.0130391 0.00718096
0.00132281 0.00359048 -0.00302356
0 0.00113384 -0.00434637
0.000944863 0.00302356 -0.0020787
0.00283459 0.00699199 0.00132281
-0.00188973 -0.00132281 -0.00604712
0.0120942 0.0156847 0.00548021
0.00321253 0.0181414 0.00718096
-0.0192752 0.00774788 -0.0164406
-0.0147399 -0.0149288 -0.0196532
-0.0402512 0.0355268 -0.0402512
-0.0120942 0.0198421 -0.0306136
0.0340151 -0.0234326 0.00850377
0.00453534 -0.00699199 -0.00226767
-0.0359048 0.0149288 0.0202201
-0.0340151 -0.013795 0.0262672
0.0105825 -0.0508336 -0.00529123
0.00869274 -0.0219208 -0.0113384
-0.0128501 -0.0570697 0.0120942
0.00302356 -0.0606602 0.00925966
-0.0200311 -0.0627389 0.013795
0.118486 -0.0680301 0.0589595
0.0642507 -0.0880612 0.0767229
0.136816 -0.0357158 0.0264562
0.000566918 0.00245664 -0.00453534
-0.00170075 -0.00226767 -0.00718096
0.000188973 0.00170075 -0.00264562
0.00359048 0.00888171 0.00340151
0.00812582 0.0185193 0.00812582
Vibration 6
0.0115273 -0.00888171 0.00604712
0.0109604 -0.00888171 -0.00340151
0.00944863 -0.0075589 -0.00321253
0.00850377 -0.00831479 -0.00359048
0.00812582 -0.00925966 0.00264562
0.0100155 -0.00982658 0.0153068
0.0062361 -0.0117163 -0.00510226
0.00982658 -0.013606 0.0394953
0.0096376 -0.0179524 0.0629279
0.00680301 -0.00661404 0.00283459
-0.0504557 0.0257003 -0.0391173
-0.0657625 0.0340151 -0.0493218
-0.0211649 0.0102045 -0.0164406
0.0402512 -0.0236216 0.0279679
0.0529123 -0.0304246 0.0368497
-0.0455424 0.0236216 -0.034393
0.00925966 -0.00434637 -0.000566918
0.00736993 0.00850377 0.0107714
0.00642507 0.0160627 0.0177634
0.00736993 0.0107714 0.0132281
0.00944863 -0.00396842 0.000566918
0.0103935 -0.0113384 -0.00642507
0.00604712 0.020976 0.0222988
0.00226767 -0.00170075 0.0062361
-0.000566918 -0.00812582 -0.0111494
-0.00396842 0.000566918 -0.0119053
-0.00453534 0.00340151 -0.0075589
-0.00264562 0.00736993 -0.0020787
0.00132281 0.00982658 0.00132281
-0.00718096 0.00113384 -0.0100155
-0.0075589 0.00359048 -0.00661404
-0.00548021 0.00812582 -0.000944863
-0.00283459 0.00982658 0.00132281
-0.00491329 0 -0.00680301
-0.00529123 0.00302356 -0.0179524
-0.00321253 -0.013795 -0.0183303
0.0113384 -0.00850377 -0.0105825
-0.0143619 -0.00982658 -0.0160627
-0.0839038 0.0444086 -0.0629279
-0.111872 0.0589595 -0.0818251
0.075967 -0.0428968 0.0542351
0.0976988 -0.0538572 0.0684081
0.0062361 0.0128501 0.0141729
0.00491329 0.0266451 0.0268341
0.0103935 -0.00907068 -0.00340151
0.0119053 -0.0224877 -0.0160627
0.000566918 0.0291018 0.0253223
0.00170075 0.0217318 0.0194642
0.0153068 0.020976 0.0294797
-0.0255113 0.013795 -0.0126612
0.00699199 0.00699199 0.075778
0.05518 -0.041574 -0.0192752
-0.00907068 -0.00226767 -0.0147399
-0.0096376 0.00226767 -0.00831479
-0.00566918 0.0103935 0.0020787
-0.00113384 0.013795 0.00585815
-0.00585815 -0.0103935 -0.0230547
Vibration 7
0.00132281 0.00188973 0.0158737
0.00113384 0.00264562 0.0096376
0.00188973 0.00264562 0.00604712
0.00151178 0.00245664 0.000188973
0.00151178 0.00151178 0.00510226
0.00132281 0.00188973 0.0200311
0 -0.00075589 -0.00548021
0.00132281 0.00321253 0.0402512
0.00151178 0.00491329 0.0608492
0.00377945 0.000377945 0.0124722
0.0130391 0.00321253 0.0119053
0.0164406 0.00170075 0.0041574
0.0096376 -0.00283459 -0.00302356
0.00113384 -0.00642507 -0.00188973
-0.00151178 -0.00472431 0.00604712
0.0130391 -0.00359048 -0.0107714
0.00188973 -0.00170075 0.00604712
0.0020787 -0.0464873 -0.0283459
0.00340151 -0.0633058 -0.0340151
0.00548021 -0.0332592 -0.0041574
0.00510226 0.0168186 0.034393
0.00359048 0.0317474 0.0391173
0.0075589 -0.0570697 -0.0124722
-0.00188973 -0.00359048 -0.0264562
-0.00812582 0.00188973 -0.0100155
-0.0115273 0.00736993 -0.0103935
-0.00869274 0.00944863 -0.0113384
-0.00585815 0.0243775 -0.00472431
-0.00699199 0.0374166 0.00604712
-0.0096376 -0.0075589 -0.0228657
-0.00736993 -0.00925966 -0.0279679
-0.0041574 0.0062361 -0.0213539
-0.00340151 0.0230547 -0.0096376
-0.00132281 0.0519675 0.0113384
-0.0147399 0.00642507 -0.0124722
-0.0107714 -0.00302356 -0.0154958
0.000944863 0.00245664 0.00699199
0.00642507 0.0582036 0.0117163
0.0175745 0.00718096 0.0168186
0.0236216 0.0041574 0.00359048
-0.00340151 -0.0103935 -0.00699199
-0.00812582 -0.00774788 0.00718096
0.00132281 -0.0695419 -0.0510226
0.00340151 -0.0999665 -0.062361
0.00585815 0.0423299 0.0589595
0.00377945 0.0670853 0.0663294
0.00982658 -0.0655735 -0.0143619
0.0222988 -0.0627389 -0.0120942
-0.00850377 -0.0636838 -0.0164406
-0.00151178 -0.000566918 -0.0355268
0.00151178 0.000188973 -0.034582
-0.0158737 -0.0102045 -0.020976
-0.0124722 -0.0200311 -0.0279679
-0.00812582 -0.0228657 -0.0368497
-0.00226767 0.00472431 -0.0255113
-0.000944863 0.0349599 -0.00491329
-0.013984 -0.00075589 -0.0188973
Vibration 8
-0.00302356 0.0100155 -0.00548021
-0.00245664 0.00642507 -0.0266451
0.00132281 0.00377945 -0.0298577
0.00548021 0.00604712 -0.0291018
0.00529123 0.0102045 -0.00944863
0.00151178 0.0126612 0.0134171
0.00699199 0.0113384 -0.00831479
0.00188973 0.0228657 0.0633058
0.00264562 0.034393 0.112628
-0.00151178 0.0096376 -0.00264562
0.0221098 -0.00113384 0.0119053
0.0306136 -0.00566918 0.013795
0.0134171 0.000566918 0.000377945
-0.0120942 0.0115273 -0.0154958
-0.0185193 0.0151178 -0.0162516
0.0253223 -0.00548021 0.00510226
0.00151178 -0.00132281 -0.020976
-0.013795 0.0124722 0.00113384
-0.0154958 0.0160627 0.0241885
-0.00188973 0.00510226 0.0243775
0.013984 -0.013795 -0.00151178
0.0153068 -0.0164406 -0.0239995
-0.00434637 0.013984 0.0542351
0.00170075 0.00396842 -0.0160627
0.0020787 0.00736993 -0.00302356
-0.00396842 -0.00359048 0.000566918
-0.00491329 -0.00831479 -0.00472431
-0.0109604 -0.027401 -0.0217318
-0.0175745 -0.0362827 -0.0323143
0.000566918 0.00434637 0.00566918
-0.00132281 -0.00491329 -0.00264562
-0.00869274 -0.0258892 -0.020976
-0.0134171 -0.0364717 -0.0298577
-0.013984 -0.0294797 -0.027401
-0.00907068 -0.0102045 0.00718096
0.00340151 0.0103935 0.00151178
-0.00472431 0.00510226 -0.0360938
-0.00585815 -0.020787 -0.0188973
0.034204 -0.00585815 0.0211649
0.0500777 -0.013795 0.0253223
-0.0257003 0.0166296 -0.0260782
-0.0364717 0.0217318 -0.0262672
-0.0247554 0.0215429 0.00113384
-0.02759 0.0281569 0.0423299
0.0253223 -0.0249444 -0.00321253
0.0272121 -0.0287238 -0.0423299
-0.0251334 0.0306136 0.0640617
-0.0020787 0.0109604 0.048377
0.0130391 0.0075589 0.075589
0.0126612 -0.000944863 -0.0120942
0.000944863 0.00170075 -0.0455424
-0.0236216 0.0168186 -0.00434637
0.00661404 0.020976 0.0190862
0.00283459 0.0041574 0.00453534
-0.0105825 -0.0338261 -0.0281569
-0.0192752 -0.0531013 -0.0440306
0.000188973 0.00585815 0.00585815
Vibration 9
-0.0164406 -0.00680301 0.00793685
-0.0156847 -0.0181414 0.00907068
-0.00566918 -0.0239995 0.0062361
0.00302356 -0.0192752 0.00510226
0.00359048 -0.00774788 0.00264562
-0.00661404 -0.00113384 0.00888171
0.0226767 -0.000377945 -0.0113384
-0.00604712 0.013795 0.0168186
-0.00529123 0.0292908 0.0260782
-0.0234326 -0.00321253 0.000188973
-0.0115273 -0.00377945 0.00302356
-0.0062361 -0.00642507 -0.00188973
-0.0134171 -0.00982658 -0.00888171
-0.0319364 -0.0062361 -0.0164406
-0.0368497 -0.00302356 -0.0119053
-0.00075589 -0.0156847 -0.00944863
-0.00548021 -0.0221098 -0.00377945
0.00944863 -0.0221098 -0.0154958
0.00831479 0.00170075 -0.0179524
-0.00869274 0.0255113 -0.00850377
-0.0230547 0.0194642 -0.00283459
-0.0211649 -0.00510226 -0.000944863
-0.0113384 0.0608492 -0.00529123
0.0258892 -0.0404401 0.00888171
0.0355268 0.00491329 -0.0179524
0.00113384 -0.0075589 -0.00699199
0.00491329 0.00188973 0.000188973
0.00925966 0.0111494 0.0130391
0.0213539 0.0171965 0.0228657
0 -0.00075589 -0.00321253
-0.000566918 0.00680301 0.00642507
0.00396842 0.0156847 0.0187083
0.00869274 0.0175745 0.0219208
0.0149288 0.00188973 0.0160627
-0.0308025 -0.027401 -0.00472431
0.0835259 0.0217318 -0.0362827
-0.0232436 -0.0224877 0.0100155
-0.000566918 -0.013795 0.00377945
-0.00453534 -0.00264562 0.00944863
0.00472431 -0.00699199 0.000944863
-0.0419519 -0.00585815 -0.0253223
-0.0502667 -0.00151178 -0.0164406
0.0228657 -0.0389284 -0.0211649
0.0202201 0.00321253 -0.0255113
-0.0359048 0.0349599 0.00151178
-0.0328812 -0.00869274 0.00491329
-0.00831479 0.0468652 -0.00831479
-0.0362827 0.0788016 0.0171965
0.00869274 0.0876833 -0.0228657
0.0506447 -0.0521564 0.0200311
0.00434637 -0.0659514 0.0175745
0.0434637 -0.0213539 0.00264562
-0.00434637 -0.00793685 -0.0132281
-0.00472431 0.00566918 0.0041574
0.00359048 0.0215429 0.0260782
0.0126612 0.0253223 0.0319364
0.0659514 0.0183303 -0.0374166
Vibration 10
-0.00377945 0.0100155 0.0428968
-0.00396842 0.00831479 0.061983
-0.00302356 0.00774788 0.0394953
-0.00359048 0.00680301 0.0119053
-0.00359048 0.00831479 0.00529123
-0.00434637 0.00944863 0.0153068
0.00302356 0.0100155 -0.0102045
-0.00434637 0.00736993 -0.00585815
-0.00453534 0.00472431 -0.0260782
-0.0020787 0.00907068 0.0349599
-0.00188973 0.0268341 0.0187083
0.00151178 0.0255113 0.000188973
0.00548021 0.0062361 -0.00151178
0.00661404 -0.0122832 0.0149288
0.00226767 -0.00925966 0.0328812
0.00869274 0.00699199 -0.0230547
-0.00302356 0.00944863 0.0323143
0.00736993 0.0166296 0.0302356
0.00888171 0.013795 0.0111494
0 0.00302356 -0.00604712
-0.0111494 0.000377945 0
-0.0122832 0.00396842 0.0194642
0.00226767 -0.00585815 -0.0334482
0.0132281 -0.0153068 -0.0272121
0.0113384 0.0111494 -0.00982658
-0.00188973 -0.0041574 -0.00340151
-0.00188973 -0.00869274 -0.00944863
-0.00736993 -0.0239995 -0.0257003
-0.020787 -0.034393 -0.0394953
0.00321253 -0.0041574 -0.00453534
0.00075589 -0.0194642 -0.0192752
-0.0062361 -0.0364717 -0.0370386
-0.00982658 -0.0370386 -0.0389284
-0.0020787 -0.00302356 -0.0151178
-0.013606 -0.0156847 0.00510226
0.034771 0.0226767 -0.0124722
-0.00529123 0.0075589 0.0873053
0.0281569 0.0285349 0.0141729
-0.00472431 0.0423299 0.020976
0.000944863 0.0391173 -0.0124722
0.0102045 -0.0283459 0.013606
0.00170075 -0.0217318 0.0438416
0.0145509 0.0238105 0.0427078
0.0170075 0.0183303 0.00888171
-0.0185193 -0.00548021 -0.0115273
-0.020598 0.00170075 0.0236216
0.0219208 -0.0188973 -0.0425188
0.000377945 -0.0041574 -0.0308025
-0.0143619 -0.00188973 -0.0514005
0.013795 -0.00831479 -0.0472432
0.0117163 -0.0164406 -0.00850377
0.0175745 -0.0359048 -0.0304246
0.00925966 0.00982658 0.00944863
0.00434637 -0.0185193 -0.0173855
-0.00831479 -0.0495108 -0.0495108
-0.0154958 -0.0512116 -0.0529123
0.0308025 0.0188973 -0.00925966
Vibration 11
-0.00925966 0.00491329 -0.013984
-0.0100155 0.0102045 -0.020409
-0.0149288 0.0130391 -0.0156847
-0.0192752 0.0096376 -0.0115273
-0.0202201 0.00453534 -0.0117163
-0.0154958 0.00188973 -0.0107714
-0.0143619 0.00793685 -0.00907068
-0.0158737 -0.00907068 -0.00170075
-0.0164406 -0.0224877 0.00661404
0.00283459 -0.0020787 -0.00359048
-0.0113384 0.00491329 -0.0130391
0.00302356 -0.00321253 -0.000944863
0.0302356 -0.0164406 0.0192752
0.0502667 -0.0264562 0.0326923
0.0364717 -0.0185193 0.0213539
0.041196 -0.0232436 0.0306136
-0.0156847 0.013795 -0.00888171
-0.0251334 0.0132281 -0.00226767
-0.0251334 0.00377945 0.00264562
-0.0160627 -0.00529123 0.00113384
-0.00736993 -0.00151178 -0.00226767
-0.00793685 0.00869274 -0.00699199
-0.0153068 -0.0213539 0.00396842
-0.0476211 0.0302356 -0.0419519
0.0147399 0.0107714 -0.00982658
0.00226767 -0.00831479 -0.00302356
0.00604712 -0.00396842 -0.00264562
0.00869274 0.000188973 0.0062361
0.0183303 -0.000944863 0.00850377
0.00302356 -0.0020787 -0.00188973
0.00264562 0.00642507 0.00850377
0.00604712 0.0117163 0.0177634
0.00869274 0.00774788 0.0164406
0.0224877 -0.00566918 0.0171965
-0.0175745 -0.0251334 0.00718096
0.055369 0.0321253 -0.0128501
-0.00604712 0.0124722 -0.0260782
0.0183303 -0.00774788 0.0211649
-0.0349599 0.0170075 -0.0302356
-0.00831479 0.00188973 -0.00793685
0.0778567 -0.041196 0.0531013
0.0514005 -0.0253223 0.0309915
-0.0328812 0.0196532 -0.0020787
-0.0317474 0.00264562 0.00680301
-0.000188973 -0.00680301 -0.00170075
-0.00132281 0.0117163 -0.00925966
-0.020787 -0.00566918 0.00812582
-0.00170075 -0.0332592 -0.013984
-0.0226767 -0.0398732 0.0211649
-0.0795575 0.0498888 -0.0682191
-0.0062361 0.0776677 -0.0959981
-0.120187 0.00188973 -0.0128501
0.000188973 -0.00566918 -0.00888171
-0.000188973 0.00944863 0.00925966
0.00642507 0.0190862 0.0262672
0.0113384 0.0117163 0.0238105
0.0472432 0.0249444 -0.00699199
Vibration 12
0.00453534 0.00283459 0.00245664
0.0041574 0.0134171 0.00680301
-0.00434637 0.0187083 -0.00113384
-0.0130391 0.0132281 -0.020787
-0.0128501 0.00188973 -0.0224877
-0.00453534 -0.00188973 -0.00604712
-0.0211649 -0.00188973 -0.0291018
-0.00510226 -0.0130391 0.0117163
-0.00548021 -0.0243775 0.0330702
0.00736993 0.00151178 0.00434637
0.0177634 -0.00396842 0.0119053
0.00699199 0.00188973 0.0041574
-0.0130391 0.0130391 -0.0105825
-0.020598 0.0170075 -0.0156847
-0.0100155 0.0109604 -0.00831479
-0.0296687 0.0224877 -0.0230547
-0.00548021 0.02759 0.0103935
-0.0105825 0.0338261 0.0190862
-0.00944863 0.0200311 0.013984
-0.00283459 -0.000566918 -0.000566918
0.000566918 0.00680301 0.00245664
-0.000944863 0.0219208 0.00869274
0.00075589 -0.0349599 -0.0226767
0.0221098 -0.00642507 0.0202201
-0.013606 -0.00850377 -0.0181414
-0.00283459 -0.0287238 -0.0179524
0.00888171 -0.0200311 -0.0215429
0.013606 -0.0105825 -0.00566918
0.0285349 -0.0255113 -0.013984
0.0062361 -0.0141729 -0.0173855
0.00869274 0.0096376 0.00680301
0.0162516 0.0247554 0.0268341
0.0170075 0.0122832 0.0194642
0.0565028 -0.0153068 0.0321253
-0.0171965 -0.0464873 0.000188973
-0.0217318 -0.00226767 0.00132281
0.0111494 0.0175745 0.0171965
0.0684081 0.00434637 0.0702978
0.0334482 -0.0126612 0.0230547
0.013795 -0.00170075 0.00888171
-0.0366607 0.0262672 -0.027401
-0.0164406 0.0141729 -0.0126612
-0.0154958 0.0468652 0.027779
-0.0132281 0.0221098 0.0183303
0.00453534 -0.00170075 -0.00226767
0.0020787 0.027401 0.0107714
0.013795 -0.0455424 -0.0289128
0.0183303 -0.0436527 -0.02759
-0.02759 -0.0459203 -0.0313695
0.0309915 -0.0126612 0.0300466
0.00396842 -0.0266451 0.0593374
0.0674632 -0.000188973 0.00132281
0.000188973 -0.0247554 -0.0317474
0.00510226 0.0175745 0.0105825
0.0200311 0.0466762 0.0478101
0.0226767 0.0219208 0.0336371
-0.0245664 -0.0143619 0.0145509
Vibration 13
0.0122832 -0.0107714 -0.0245664
0.0115273 0.00170075 -0.0304246
-0.00075589 0.00925966 -0.000944863
-0.0111494 0.00264562 0.0228657
-0.0128501 -0.00774788 0.0175745
0.000377945 -0.0156847 -0.00132281
-0.0107714 -0.00699199 0.0260782
-0.000566918 -0.0385504 0.00888171
-0.00188973 -0.0670853 0.020409
0.0158737 -0.0130391 -0.0239995
0.0183303 -0.0289128 -0.00850377
0.00453534 -0.0222988 -0.00075589
-0.0111494 0.000566918 -0.00850377
-0.00982658 0.0147399 -0.020598
0.0041574 0.00585815 -0.0279679
-0.0336371 0.0103935 -0.00264562
-0.00113384 0.0194642 0.00850377
-0.00548021 0.0257003 0.0164406
-0.00453534 0.0162516 0.0128501
0.000377945 -0.000377945 0.00075589
0.00283459 0.00434637 0.00264562
0.00170075 0.0151178 0.00699199
0.00321253 -0.0285349 -0.0168186
0.00377945 0.00982658 0.0366607
0.020598 0.00831479 0.00699199
0.00264562 0.0154958 0.0111494
-0.00340151 0.0130391 0.0154958
-0.00774788 0.00226767 0.00113384
-0.0219208 0.0124722 0.00510226
0.000377945 0.013606 0.0164406
-0.00245664 -0.00642507 -0.00321253
-0.0102045 -0.0249444 -0.0234326
-0.0117163 -0.0179524 -0.0198421
-0.0224877 0.0338261 -0.0020787
-0.00226767 0.0177634 0.00132281
0.0729434 0.0222988 -0.0198421
0.0213539 0.00774788 -0.0519675
-0.00944863 0.0419519 -0.0102045
0.0298577 -0.0468652 -0.00377945
0.00585815 -0.0336371 0.0100155
-0.0213539 0.0332592 -0.0255113
0.00510226 0.0158737 -0.0366607
-0.00944863 0.0355268 0.0224877
-0.0075589 0.0192752 0.0173855
0.00585815 -0.00283459 -0.00151178
0.00396842 0.0160627 0.00642507
0.0120942 -0.0232436 -0.0192752
0.0192752 -0.0408181 -0.0332592
-0.0196532 -0.0464873 -0.0122832
0.00151178 0.00302356 0.0578256
-0.0041574 0.00132281 0.0580146
0.0389284 0.0239995 0.0224877
0.00642507 0.0266451 0.0306136
0.00113384 -0.00888171 -0.00359048
-0.0141729 -0.0444086 -0.0417629
-0.0175745 -0.0306136 -0.034204
0.0670853 0.0294797 -0.0298577
Vibration 14
0 0.0020787 0.0173855
-0.000377945 0.00396842 0.00944863
-0.00113384 0.00453534 -0.00925966
-0.00245664 0.00359048 -0.0111494
-0.00302356 0.00188973 0
-0.00170075 0.00132281 0.00793685
-0.00302356 0.00226767 0.00188973
-0.00188973 -0.00566918 -0.00359048
-0.00245664 -0.0162516 -0.0196532
0.00340151 0.000377945 0.0215429
0.0122832 0.00283459 0.0211649
0.00925966 0.00510226 0.00944863
-0.00283459 0.00396842 -0.00113384
-0.00491329 -0.00264562 0.00396842
-0.00245664 -0.00340151 0.0149288
-0.0153068 0.0124722 -0.0232436
-0.000944863 0.00113384 -0.0192752
-0.00340151 -0.00869274 -0.0238105
-0.00491329 -0.00888171 -0.0181414
-0.00151178 0.00075589 -0.00774788
0.00340151 0.00151178 -0.00925966
0.00245664 0.00188973 -0.0147399
-0.00359048 0.0020787 0.0264562
0.0126612 -0.013984 -0.0041574
0.00264562 0.00321253 0.00132281
0.00151178 0.000944863 0.0020787
0 -0.000566918 0.00245664
0.000377945 0 0.00396842
0.00170075 0.00264562 0.00642507
-0.000944863 -0.000566918 0.00188973
-0.00113384 0.000377945 0.00340151
-0.000566918 0.00113384 0.00491329
0.000188973 0.00075589 0.00491329
-0.00491329 -0.00510226 -0.00264562
0.0020787 0.000944863 0.00264562
0.0103935 0.00718096 0.000377945
0.000566918 0.00434637 0.0151178
-0.0113384 -0.0124722 -0.0109604
0.020787 0.00396842 0.0289128
0.0143619 0.00812582 0.00774788
-0.0105825 -0.00566918 -0.00188973
-0.00680301 -0.00699199 0.0170075
-0.00585815 -0.013984 -0.0306136
-0.00585815 -0.013606 -0.0211649
0.00453534 0.00453534 -0.00548021
0.00566918 0.00510226 -0.0147399
-0.0676522 0.35508 0.0984547
0.0427078 -0.13247 -0.294041
0.0132281 -0.230925 0.329001
0.00283459 -0.00472431 -0.0215429
0.0107714 -0.0143619 0.0391173
0.0425188 -0.0400622 -0.0187083
-0.00151178 -0.00132281 0.000566918
-0.00170075 0.00075589 0.00340151
-0.00075589 0.0020787 0.00642507
0.000566918 0.00151178 0.0062361
0.0105825 0.00661404 0.000944863
Vibration 15
-0.0020787 -0.00604712 -0.00718096
-0.00151178 -0.00982658 -0.00529123
0.00188973 -0.0119053 0.00245664
0.00585815 -0.00907068 0.00774788
0.00680301 -0.00491329 0.00831479
0.00283459 -0.00340151 0.00075589
0.00510226 -0.00548021 0.0126612
0.00321253 0.00585815 -0.00113384
0.00377945 0.0179524 -0.00321253
-0.00680301 -0.00396842 -0.0115273
-0.0130391 -0.00434637 -0.0126612
-0.0105825 -0.0062361 -0.00661404
-0.00188973 -0.00831479 0.000188973
-0.00132281 -0.00491329 -0.00264562
-0.00377945 -0.00340151 -0.00831479
0.00850377 -0.0147399 0.0134171
0.0020787 -0.0103935 0.00283459
0.00472431 0.00642507 0.013606
0.00453534 0.0134171 0.0117163
0.00151178 0.000377945 -0.00340151
-0.00170075 -0.0158737 -0.0132281
-0.00170075 -0.0188973 -0.00793685
0.00151178 0.00283459 -0.00718096
-0.00907068 -0.00113384 0.000377945
-0.00944863 -0.00359048 0.00736993
-0.013795 0.013606 0.00529123
0.0147399 0.0417629 0.000377945
0.0075589 0.0111494 -0.0164406
0.0534792 0.0349599 0.0170075
0.0175745 0.061983 0.0166296
0.000188973 0.0243775 -0.00699199