[Molden Format]
[FREQ]
-16.3
-9.2
-1.7
19.9
23.5
27.3
32.9
34.8
41.5
50.8
69.0
82.4
96.9
99.9
108.3
125.6
132.6
138.7
154.2
171.5
178.6
200.5
219.3
221.7
240.9
244.5
259.2
277.9
283.6
309.4
321.8
331.4
347.5
355.2
360.4
372.7
390.8
410.9
415.8
425.5
477.9
491.3
498.4
524.7
532.8
544.1
555.4
561.2
566.3
577.9
610.8
614.7
622.3
629.9
631.5
645.0
659.6
679.4
691.3
699.9
711.0
727.1
764.2
776.7
786.1
805.4
826.2
837.7
847.5
870.6
879.0
883.0
897.2
897.7
940.3
955.9
958.8
979.4
1004.9
1006.5
1007.7
1014.0
1015.6
1023.9
1032.2
1047.5
1065.4
1069.9
1079.2
1095.0
1116.9
1126.7
1132.6
1154.6
1177.0
1178.9
1180.6
1208.6
1220.0
1235.3
1246.8
1260.8
1268.6
1272.3
1273.4
1277.0
1283.5
1287.1
1294.9
1300.3
1313.8
1323.4
1333.0
1339.3
1343.0
1348.2
1350.5
1364.6
1381.8
1388.9
1394.5
1427.5
1481.7
1502.6
1513.2
1522.4
1528.0
1553.2
1560.1
1577.3
1602.2
1605.8
1612.9
1653.4
1658.2
1688.8
1698.5
1700.7
1705.3
1706.0
1714.9
1717.2
1892.7
2466.9
2653.2
2654.6
2664.4
2667.2
2675.5
2741.7
2745.9
2746.1
2748.4
2751.1
2751.3
2751.6
2752.5
2753.9
2761.0
2765.6
2767.5
2769.9
2773.5
2775.4
2780.7
       
[FR-COORD]
C -2.44587 -3.06797 0.182359
C 0.187083 -3.06797 0.182359
C 1.4687 -0.752867 0.182359
N 0.267585 1.48306 0.180847
C -2.32153 1.52255 0.187839
C -3.75489 -0.760237 0.163272
N -3.41133 3.86071 0.136438
C -6.41921 -0.674632 0.0927855
N -8.5992 -0.593941 0.0228657
C -3.80364 -5.48002 0.20239
C -3.33178 -7.26241 -1.7
C -4.60791 -9.54954 -1.71625
C -6.36384 -10.0481 0.216374
C -6.83665 -8.3078 2.13898
C -5.54597 -6.01708 2.11309
O -7.47122 -12.3456 -0.0211649
C 4.25812 -0.661215 0.192752
C 5.54805 -0.176311 2.4385
C 8.1759 -0.0973209 2.44096
C 9.51723 -0.485093 0.2005
C 8.21105 -0.982658 -2.0392
C 5.5849 -1.0762 -2.0462
C 12.335 -0.401945 0.19861
C -9.36756 -12.9962 1.76841
C -2.0256 6.27578 0.361505
C 0.328245 6.0904 2.15372
C 2.71705 6.24762 0.643452
C 2.28638 6.47401 -1.9912
C -0.38626 6.58475 -2.3922
C 5.15593 6.05752 1.57754
C 7.16093 6.03484 -0.135304
C 6.73857 6.24176 -2.7367
C 4.28987 6.47722 -3.68402
O -1.40407 7.29378 -4.46656
O 0.226011 5.87308 4.3938
O -3.45064 8.13546 0.436149
H 1.23909 -4.82409 0.216374
H -5.32449 4.04005 0.26664
H -1.9655 -6.83949 -3.18098
H -4.28722 -10.9493 -3.18041
H -8.1878 -8.69576 3.62884
H -5.89519 -4.63115 3.59842
H 4.49452 0.144753 4.18253
H 9.18766 0.260593 4.19614
H 9.25172 -1.30486 -3.78361
H 4.56558 -1.46435 -3.79268
H 13.1034 0.725277 1.76179
H 13.0988 0.394575 -1.55902
H 13.1262 -2.31813 0.389284
H -9.96963 -14.8708 1.10757
H -10.9459 -11.6624 1.69093
H -8.56991 -13.1228 3.6706
H 5.47926 5.87478 3.6073
H 9.08939 5.82659 0.56465
H 8.33331 6.19169 -4.03154
H 3.95161 6.62802 -5.70867
H -3.3176 7.56741 -4.23299

[FR-NORM-COORD]
Vibration 1
0.00113384 0.00151178 0.000944863
0.000944863 0.00113384 0.00245664
0.00151178 0.000944863 0.00982658
0.00188973 0.00113384 0.0147399
0.00188973 0.00151178 0.0113384
0.00151178 0.00170075 0.00510226
0.00170075 0.00151178 0.0147399
0.00151178 0.00226767 0.0020787
0.00170075 0.00264562 -0.00113384
0.000944863 0.00151178 -0.00396842
0.00170075 0.00472431 -0.00699199
0.00245664 0.00434637 -0.0105825
0.00283459 0.000566918 -0.0111494
0.00170075 -0.00245664 -0.00888171
0.00075589 -0.00188973 -0.00529123
0.0041574 0.000188973 -0.0145509
0.00151178 -0.000566918 0.0134171
-0.00151178 0.0224877 0.0103935
-0.00188973 0.0198421 0.013606
0.00170075 -0.00548021 0.0196532
0.00510226 -0.0281569 0.0232436
0.00472431 -0.0257003 0.0202201
0.00188973 -0.0100155 0.0311805
0.00566918 -0.0041574 -0.0145509
0.000944863 0.00151178 0.0124722
0.0119053 0.000566918 -0.00245664
0.00283459 -0.00264562 -0.0171965
-0.0120942 0.000188973 -0.0145509
-0.0141729 0.00907068 0.00245664
0.00793685 -0.00736993 -0.0315584
-0.00226767 -0.0119053 -0.0434637
-0.0171965 -0.0107714 -0.0410071
-0.0222988 -0.0041574 -0.0262672
-0.0268341 0.0270231 0.0149288
0.0255113 0.00302356 -0.00151178
0.000377945 0.00075589 0.0213539
0.00075589 0.00075589 -0.00132281
0.00170075 0.00075589 0.0175745
0.00151178 0.0075589 -0.0062361
0.00321253 0.00661404 -0.0126612
0.00151178 -0.00529123 -0.0096376
-0.000188973 -0.00434637 -0.00321253
-0.00434637 0.0423299 0.00510226
-0.00340151 0.0372276 0.0109604
0.00661404 -0.0478101 0.027779
0.00736993 -0.0436527 0.0226767
-0.0128501 0.170642 -0.0916517
0.0226767 -0.216563 -0.0529123
-0.0041574 0.0102045 0.262105
0.0075589 -0.0041574 -0.0166296
0.0041574 -0.00585815 -0.0124722
0.00642507 -0.00566918 -0.0151178
0.0196532 -0.00831479 -0.0334482
0.00132281 -0.0164406 -0.054991
-0.0249444 -0.0151178 -0.0504557
-0.0338261 -0.00245664 -0.0241885
-0.0243775 0.0330702 0.0321253
Vibration 2
0.00226767 -0.0020787 0.00151178
0.00226767 -0.00226767 0.0120942
0.00245664 -0.00226767 0.0117163
0.00264562 -0.00226767 0.00850377
0.00264562 -0.0020787 0.000188973
0.00264562 -0.00188973 -0.00869274
0.00226767 -0.0020787 0.00245664
0.00321253 -0.00151178 -0.0326923
0.0041574 -0.00075589 -0.0583925
0.00170075 -0.00170075 0.0020787
0.0147399 -0.0111494 0.0141729
0.0145509 -0.0109604 0.0162516
0.000944863 -0.00151178 0.00642507
-0.0126612 0.00812582 -0.00548021
-0.0119053 0.0075589 -0.0075589
0.00283459 -0.00283459 0.0102045
0.00245664 -0.00226767 0.013795
0.00226767 -0.0109604 0.0153068
0.00264562 -0.00907068 0.0154958
0.00226767 0.00113384 0.013984
0.0020787 0.00888171 0.0119053
0.00245664 0.00736993 0.0117163
0.00226767 0.00510226 0.00604712
-0.0105825 0.00661404 -0.000377945
0.000944863 -0.00283459 0.0109604
0.0096376 -0.0111494 -0.00132281
0.00226767 -0.00944863 -0.0126612
-0.0096376 0.00548021 -0.0096376
-0.0111494 0.0187083 0.00548021
0.00642507 -0.0192752 -0.0253223
-0.00188973 -0.0156847 -0.0349599
-0.013984 -0.00245664 -0.0321253
-0.0177634 0.00869274 -0.0190862
-0.0217318 0.0559359 0.0236216
0.0202201 -0.0166296 -0.00132281
-0.000377945 -0.00396842 0.0251334
0.00226767 -0.0020787 0.0194642
0.0020787 -0.00302356 0.000566918
0.0253223 -0.0185193 0.0217318
0.0249444 -0.0183303 0.0255113
-0.0234326 0.0156847 -0.0134171
-0.0222988 0.0149288 -0.0168186
0.00264562 -0.0185193 0.0168186
0.00170075 -0.0153068 0.0171965
0.00302356 0.0168186 0.0109604
0.00226767 0.013984 0.0103935
0.0147399 -0.164028 0.121509
-0.0158737 0.198043 0.0852266
0.0075589 -0.013984 -0.209382
-0.00529123 0.00302356 0.00548021
-0.0102045 0.00604712 -0.0196532
-0.0249444 0.0173855 0.00642507
0.0156847 -0.0300466 -0.027779
0.000944863 -0.0234326 -0.0451645
-0.0202201 0 -0.0398732
-0.0272121 0.0202201 -0.0168186
-0.0190862 0.0638727 0.0428968
Vibration 3
-0.00113384 -0.000377945 -0.00812582
-0.000944863 -0.000188973 -0.00377945
-0.00113384 -0.000377945 -0.0107714
-0.000944863 -0.000377945 -0.0166296
-0.000944863 -0.000188973 -0.0181414
-0.000944863 -0.000377945 -0.0185193
-0.00075589 -0.000188973 -0.0173855
-0.000566918 -0.000188973 -0.0306136
-0.000188973 0 -0.0436527
-0.000566918 -0.000566918 -0.000188973
0.00850377 -0.0124722 0.0132281
0.0109604 -0.013795 0.0232436
0.0041574 -0.00321253 0.0198421
-0.00585815 0.00925966 0.00604712
-0.00812582 0.0103935 -0.00396842
0.00907068 -0.00680301 0.0317474
-0.000944863 -0.000944863 -0.0117163
0.000377945 -0.0330702 -0.00529123
0 -0.034771 -0.00566918
-0.000944863 -0.00491329 -0.0120942
-0.0020787 0.02759 -0.0179524
-0.00264562 0.0302356 -0.0179524
-0.00075589 -0.00944863 -0.00434637
0.00340151 0.00245664 0.0291018
-0.00151178 -0.000944863 -0.00340151
-0.00661404 -0.0102045 0.00321253
-0.00283459 -0.00548021 0.0096376
0.00283459 0.0096376 0.00982658
0.00377945 0.0175745 0.00604712
-0.00510226 -0.0141729 0.013606
-0.00151178 -0.0075589 0.0175745
0.00396842 0.00718096 0.0177634
0.00642507 0.0162516 0.013984
0.0075589 0.0453534 0.013795
-0.0128501 -0.0202201 0.00188973
-0.00302356 -0.00170075 0.00283459
-0.000944863 -0.000188973 0.00396842
-0.00113384 -0.000377945 -0.0211649
0.013795 -0.020787 0.0158737
0.0185193 -0.0232436 0.0338261
-0.0119053 0.0179524 0.00283459
-0.0156847 0.0198421 -0.0145509
0.00151178 -0.0568808 -0.000377945
0.0020787 -0.0595264 -0.00170075
-0.00396842 0.0506447 -0.0234326
-0.00359048 0.0559359 -0.0230547
-0.0120942 0.131147 -0.0995886
0.0162516 -0.170264 -0.0693529
-0.00642507 0.00604712 0.175556
0.0113384 -0.00453534 0.0417629
0.000188973 -0.00245664 0.0117163
-0.00434637 0.0198421 0.0336371
-0.00944863 -0.0258892 0.0132281
-0.00321253 -0.0143619 0.0202201
0.00661404 0.0117163 0.020787
0.0107714 0.0281569 0.0141729
0.00793685 0.0495108 0.0166296
Vibration 4
0.000377945 0.000188973 -0.00869274
0.000188973 -0.000188973 -0.0160627
0 -0.000188973 -0.0124722
-0.000188973 -0.000377945 -0.013606
-0.000188973 0 -0.0103935
0 -0.000188973 -0.000566918
0.000188973 0 -0.0141729
-0.000944863 -0.00188973 0.0264562
-0.00188973 -0.00472431 0.0568808
-0.000188973 0.000377945 -0.00680301
-0.0308025 0.0158737 -0.0285349
-0.0328812 0.0168186 -0.0272121
-0.00283459 0.00245664 -0.00359048
0.0287238 -0.0130391 0.0181414
0.0292908 -0.0132281 0.0160627
-0.00888171 0.00548021 -0.00548021
0 0.000566918 -0.00151178
-0.0113384 -0.0410071 0.0143619
-0.0115273 -0.0398732 0.0291018
-0.000188973 0.0020787 0.0285349
0.0111494 0.0436527 0.0126612
0.0111494 0.0432747 -0.00245664
-0.000188973 0.00245664 0.0445975
0.0211649 -0.00907068 0.020976
0.00075589 -0.000377945 -0.0117163
0.000566918 -0.00491329 -0.0111494
0.000377945 -0.00736993 -0.0117163
-0.000377945 0.000944863 -0.0109604
-0.000377945 0.00869274 -0.00831479
0.000377945 -0.0158737 -0.0132281
-0.000566918 -0.0156847 -0.0141729
-0.00132281 -0.00680301 -0.0134171
-0.00113384 0.00170075 -0.0117163
-0.00170075 0.0296687 -0.000566918
0.000188973 -0.00642507 -0.0113384
0.000377945 -0.000188973 -0.00850377
0 -0.000566918 -0.0228657
0.000377945 0.000566918 -0.0122832
-0.0536682 0.0272121 -0.0462983
-0.0572587 0.0289128 -0.0440306
0.0525344 -0.0247554 0.0366607
0.0531013 -0.0245664 0.0323143
-0.0202201 -0.0738883 0.0149288
-0.020409 -0.0718096 0.0406291
0.0200311 0.076156 0.0119053
0.0200311 0.076156 -0.0149288
-0.00888171 -0.0224877 0.0668963
0.00925966 0.0306136 0.0616051
-0.000944863 -0.000566918 0.0183303
0.00661404 -0.00151178 0.0128501
0.0219208 -0.00585815 0.062172
0.0544241 -0.0291018 0.00566918
0.000944863 -0.0228657 -0.013984
-0.00075589 -0.0224877 -0.0156847
-0.00188973 -0.0062361 -0.0143619
-0.00170075 0.00869274 -0.0111494
-0.00075589 0.0351489 0.00661404
Vibration 5
0.00245664 -0.00283459 0.0198421
0.00264562 -0.00132281 0.0228657
0.00151178 -0.000944863 0.0166296
0.000377945 -0.00151178 0.0126612
0.000566918 -0.00264562 0.0149288
0.00151178 -0.00321253 0.0164406
0.000566918 -0.00264562 0.013606
0.00170075 -0.00283459 0.0111494
0.00188973 -0.00151178 0.00529123
0.00283459 -0.00283459 0.0143619
0.020598 -0.00699199 0.0224877
0.0170075 -0.00491329 0.0119053
-0.00566918 0.00132281 -0.00699199
-0.0219208 0.0041574 -0.013606
-0.0170075 0.00151178 -0.00245664
-0.00925966 0.0041574 -0.0175745
0.00151178 0.00321253 0.0107714
0.00680301 -0.0393063 0.0170075
0.00642507 -0.0308025 0.0102045
0.00075589 0.0196532 -0.00226767
-0.00434637 0.0612271 -0.00812582
-0.00434637 0.0532903 -0.00170075
0.000566918 0.0287238 -0.00566918
-0.0360938 0.013795 -0.0425188
0.00340151 -0.00302356 0.00396842
0.00888171 0 -0.00321253
0.00491329 -0.00170075 -0.00944863
-0.000944863 -0.00925966 -0.00888171
-0.00188973 -0.0190862 -0.00529123
0.00718096 0.00359048 -0.013795
0.00377945 0.0041574 -0.0177634
-0.00170075 -0.000377945 -0.0173855
-0.0041574 -0.00793685 -0.0128501
-0.00510226 -0.0506447 -0.0147399
0.0149288 0.0041574 -0.00245664
0.00680301 -0.00151178 0.00188973
0.00359048 -0.00075589 0.02759
0.00113384 -0.00170075 0.0170075
0.0374166 -0.0117163 0.0366607
0.0309915 -0.00774788 0.0177634
-0.0383614 0.00850377 -0.027401
-0.0296687 0.00340151 -0.00699199
0.0115273 -0.0782347 0.0268341
0.0111494 -0.0629279 0.013984
-0.00925966 0.0995886 -0.0181414
-0.00850377 0.0865495 -0.00661404
-0.00491329 0.0806913 -0.0402512
0.000566918 -0.0249444 -0.0296687
0.00604712 0.0368497 0.0557469
-0.034582 0.0154958 -0.048566
-0.0298577 0.0200311 -0.0657625
-0.0625499 0.0128501 -0.0315584
0.0113384 0.00736993 -0.0141729
0.00548021 0.00888171 -0.0213539
-0.0041574 0.00170075 -0.020409
-0.00869274 -0.0124722 -0.0124722
-0.00585815 -0.0578256 -0.0200311
Vibration 6
-0.0122832 0.0156847 0.00529123
-0.0119053 0.013795 0.00396842
-0.00925966 0.0120942 0.00453534
-0.00661404 0.0134171 0.00566918
-0.00661404 0.0158737 0.00793685
-0.00944863 0.0171965 0.0109604
-0.0041574 0.0168186 0.00529123
-0.0096376 0.0221098 0.0211649
-0.00982658 0.0281569 0.0334482
-0.00718096 0.0130391 -0.00151178
0.0253223 0.00718096 0.0111494
0.0442196 -0.00283459 0.00888171
0.0289128 -0.00793685 -0.0062361
-0.00888171 0.000188973 -0.0228657
-0.0262672 0.0102045 -0.0200311
0.0557469 -0.0211649 -0.00264562
-0.00907068 0.00359048 0.00151178
-0.00377945 -0.0185193 0.00302356
-0.00302356 -0.0362827 0.000944863
-0.00793685 -0.0319364 -0.00264562
-0.013606 -0.00736993 -0.00491329
-0.0141729 0.0105825 -0.00283459
-0.00736993 -0.0538572 -0.00548021
0.0468652 -0.0313695 -0.0158737
-0.00283459 0.0173855 -0.00529123
-0.00510226 0.0241885 -0.00132281
-0.00359048 0.00359048 -0.00132281
-0.00170075 -0.00566918 -0.00245664
-0.000944863 0.0062361 -0.00302356
-0.00491329 -0.0075589 0
-0.00491329 -0.0294797 0.000377945
-0.00321253 -0.0385504 -0.00075589
-0.00132281 -0.0264562 -0.00226767
0.000566918 0.0115273 -0.00188973
-0.0075589 0.0438416 0.000377945
-0.00302356 0.0179524 -0.0145509
-0.0132281 0.0128501 0.0020787
-0.00396842 0.0190862 0.00548021
0.0377945 0.0105825 0.0232436
0.0716206 -0.00793685 0.0198421
-0.0238105 -0.00188973 -0.0368497
-0.0544241 0.0149288 -0.0309915
0.000377945 -0.0228657 0.0062361
0.000944863 -0.0540462 0.0020787
-0.0173855 -0.00302356 -0.00812582
-0.0187083 0.0289128 -0.00434637
0.00434637 -0.089573 0.0145509
-0.00453534 -0.0262672 0.00812582
-0.0219208 -0.0634948 -0.0434637
0.0786126 -0.0451645 -0.00585815
0.0298577 -0.0531013 -0.0436527
0.0289128 -0.00434637 -0.00661404
-0.00642507 0 0.000944863
-0.00642507 -0.0396842 0.00151178
-0.00340151 -0.0557469 -0.000188973
0 -0.0338261 -0.00302356
0.00188973 0.0221098 0.00151178
Vibration 7
0.0236216 -0.00869274 0.0170075
0.0232436 -0.00283459 0.0162516
0.0175745 0.000566918 0.00642507
0.0132281 -0.00170075 -0.00132281
0.0130391 -0.0075589 -0.00151178
0.0187083 -0.0113384 0.0102045
0.00302356 -0.0128501 -0.0141729
0.0181414 -0.0198421 0.0162516
0.0175745 -0.0296687 0.0232436
0.0241885 -0.00888171 0.0188973
0.0173855 -0.00566918 0.0141729
0.00283459 0.00245664 0.00377945
-0.00510226 0.00774788 -0.00226767
0.00850377 0.000377945 0.00774788
0.0234326 -0.00793685 0.0183303
-0.027779 0.0202201 -0.0183303
0.0177634 0.00264562 0.000566918
0.0239995 0.0041574 -0.00340151
0.0241885 0.000377945 -0.0100155
0.0183303 -0.00548021 -0.0124722
0.0120942 -0.00642507 -0.00869274
0.0119053 -0.00226767 -0.0020787
0.0185193 -0.0111494 -0.0190862
-0.0515895 0.0366607 -0.0376055
-0.0158737 -0.00113384 -0.0213539
-0.0264562 0.0230547 -0.00396842
-0.0200311 0.00283459 0.00340151
-0.0119053 -0.00283459 0.00075589
-0.0102045 0.0141729 -0.00264562
-0.0238105 -0.0100155 0.0100155
-0.0198421 -0.0323143 0.0147399
-0.0120942 -0.0394953 0.0128501
-0.00793685 -0.0239995 0.00566918
-0.0107714 0.0629279 0.0149288
-0.0374166 0.0538572 -0.00188973
-0.0359048 -0.0130391 -0.034771
0.027401 -0.000188973 0.0217318
0.00113384 -0.0224877 -0.0198421
0.0221098 -0.00869274 0.0177634
-0.0041574 0.0062361 -0.00132281
0.00661404 0.00170075 0.00642507
0.0326923 -0.0126612 0.0251334
0.0287238 0.0075589 -0.00132281
0.0289128 0.00132281 -0.0130391
0.00736993 -0.0107714 -0.0107714
0.00718096 -0.00340151 0.000944863
0.0241885 -0.00604712 -0.0257003
0.0164406 -0.0202201 -0.0241885
0.0149288 -0.0119053 -0.0126612
-0.075778 0.0508336 -0.0559359
-0.0304246 0.061794 -0.0393063
-0.0674632 0.0102045 -0.0326923
-0.0298577 -0.00377945 0.0115273
-0.0232436 -0.0447865 0.0200311
-0.00944863 -0.0578256 0.0170075
-0.00151178 -0.0298577 0.0041574
-0.00944863 0.0791795 0.0323143
Vibration 8
-0.00226767 -0.00585815 -0.00982658
-0.00170075 -0.00529123 -0.0251334
-0.00113384 -0.00604712 -0.0272121
-0.000566918 -0.00566918 -0.0287238
-0.000377945 -0.00529123 -0.0171965
-0.00151178 -0.00510226 0.00151178
0.00113384 -0.00453534 -0.0194642
-0.00245664 0.000566918 0.0476211
-0.00396842 0.00907068 0.100344
-0.000377945 -0.00680301 -0.00226767
0.0300466 -0.02759 0.0241885
0.0319364 -0.0287238 0.0285349
0.00075589 -0.00888171 0.00529123
-0.0292908 0.0107714 -0.0200311
-0.0283459 0.0102045 -0.0226767
0.00472431 -0.0115273 0.0117163
-0.00113384 -0.00434637 -0.0175745
-0.0145509 0.0124722 -0.0132281
-0.0149288 0.0171965 0.00151178
-0.00151178 0.00529123 0.0117163
0.0120942 -0.0120942 0.0075589
0.0120942 -0.0168186 -0.00699199
-0.00170075 0.0113384 0.0264562
-0.0364717 0.0147399 -0.0222988
0.00453534 -0.00736993 -0.00982658
0.00245664 -0.0198421 -0.0075589
0.00377945 -0.00302356 -0.00377945
0.00491329 0.0120942 -0.00283459
0.00472431 0.0102045 -0.00340151
0.00359048 -0.000377945 -0.00321253
0.00510226 0.0185193 -0.00170075
0.00642507 0.0330702 -0.000566918
0.0062361 0.0300466 -0.00113384
0.00510226 0.0313695 0.00377945
0.000188973 -0.0423299 -0.00982658
0.00642507 -0.00548021 -0.000377945
-0.00132281 -0.00529123 -0.0306136
0.00170075 -0.00245664 -0.013795
0.0525344 -0.0428968 0.0406291
0.0568808 -0.0444086 0.0491329
-0.0529123 0.0262672 -0.0372276
-0.0504557 0.0234326 -0.0400622
-0.0251334 0.0219208 -0.0211649
-0.0255113 0.0302356 0.00510226
0.0226767 -0.0211649 0.0156847
0.0228657 -0.0298577 -0.0103935
-0.0113384 0.000944863 0.0387394
0.00472431 0.0264562 0.0360938
0.00170075 0.0117163 0.0156847
-0.0249444 0.00736993 -0.0117163
-0.0321253 0.0168186 -0.0750221
-0.0793685 0.0376055 -0.00283459
0.00264562 -0.0119053 -0.00396842
0.00529123 0.0221098 -0.00132281
0.0075589 0.0474321 0.000377945
0.00736993 0.0419519 -0.000566918
0.00472431 0.0292908 0.00642507
Vibration 9
-0.0120942 -0.000566918 -0.0020787
-0.0117163 -0.00604712 -0.00132281
-0.00718096 -0.00907068 0.00283459
-0.00359048 -0.00680301 0.00453534
-0.00302356 -0.00075589 0.00113384
-0.00774788 0.00188973 0.000377945
0.00396842 0.00245664 -0.00170075
-0.0075589 0.00869274 0.00377945
-0.0075589 0.0166296 0.00850377
-0.0145509 0.00075589 -0.00510226
-0.0096376 -0.000188973 -0.00321253
-0.00453534 -0.00302356 -0.00188973
-0.00453534 -0.00529123 -0.00264562
-0.0128501 -0.00264562 -0.00718096
-0.0179524 0.000377945 -0.00831479
0.00472431 -0.0102045 0.00151178
-0.00736993 -0.00472431 0.00245664
-0.00793685 0.0170075 -0.00170075
-0.00888171 0.0487549 -0.00793685
-0.00944863 0.0585815 -0.0100155
-0.00831479 0.0257003 -0.00340151
-0.00718096 -0.0062361 0.00283459
-0.0109604 0.106581 -0.0190862
0.0134171 -0.0183303 0.0075589
0.0111494 -0.00170075 -0.00359048
0.0075589 -0.00604712 0.00132281
0.0105825 -0.0243775 0.00396842
0.0151178 -0.0268341 0.00283459
0.0164406 -0.00264562 0.00188973
0.00812582 -0.0391173 0.00680301
0.0096376 -0.0616051 0.00869274
0.013606 -0.0676522 0.0075589
0.0166296 -0.0495108 0.00453534
0.0215429 0.0326923 0.0115273
0.00302356 0.00396842 0.0020787
0.0156847 0.00283459 -0.00888171
-0.0154958 -0.00831479 -0.00321253
0.00434637 0.00869274 -0.00585815
-0.00888171 0.000944863 -0.00226767
0.000377945 -0.0041574 0
-0.0153068 -0.00283459 -0.00925966
-0.0238105 0.00188973 -0.0111494
-0.00793685 0.0124722 -0.000944863
-0.00925966 0.0678412 -0.0117163
-0.00812582 0.0272121 -0.00377945
-0.0062361 -0.0292908 0.00736993
-0.0258892 0.135115 -0.0323143
-0.0296687 0.102234 -0.0292908
0.0228657 0.122265 -0.00245664
0.0249444 -0.0243775 0.013984
0.00396842 -0.0294797 0.00699199
0.0181414 -0.0075589 0.0062361
0.00510226 -0.0349599 0.00774788
0.00718096 -0.075967 0.0111494
0.0143619 -0.0867384 0.00925966
0.0198421 -0.0536682 0.00377945
0.0241885 0.0527234 0.0194642
Vibration 10
-0.00982658 0.000188973 0.0417629
-0.00982658 -0.00170075 0.0589595
-0.00812582 -0.00264562 0.0381725
-0.00680301 -0.00226767 0.0122832
-0.00699199 -0.000566918 0.0020787
-0.00869274 0.000566918 0.0181414
-0.0020787 0.00151178 -0.02759
-0.00850377 -0.000944863 0.00888171
-0.00831479 -0.00472431 0.00132281
-0.00850377 -0.000944863 0.0317474
-0.00831479 0.0173855 0.0141729
-0.0041574 0.0154958 -0.00529123
0.000377945 -0.00566918 -0.00642507
0.000944863 -0.0245664 0.0105825
-0.00396842 -0.020787 0.0294797
0.00453534 -0.00529123 -0.0283459
-0.00812582 -0.00434637 0.0270231
0.00793685 -0.000188973 0.0164406
0.00812582 0 -0.00359048
-0.00850377 -0.00434637 -0.0126612
-0.0247554 -0.00944863 -0.0020787
-0.0245664 -0.00907068 0.0177634
-0.00850377 -0.00377945 -0.034582
0.0134171 -0.0309915 -0.0285349
0.00510226 -0.00434637 -0.0213539
0.00245664 -0.0183303 -0.0188973
0.00585815 -0.00396842 -0.0117163
0.0132281 0.0107714 -0.0115273
0.013795 0.0111494 -0.0179524
0.00377945 -0.000188973 -0.00510226
0.0096376 0.0215429 0.00170075
0.0170075 0.0370386 0.00170075
0.0188973 0.0317474 -0.00472431
0.0217318 0.0464873 -0.00982658
-0.00302356 -0.0383614 -0.0211649
0.0128501 0.0020787 -0.0230547
-0.0115273 -0.00226767 0.0814472
-0.0020787 0.00699199 -0.0387394
-0.0113384 0.0338261 0.0162516
-0.00453534 0.0300466 -0.0192752
0.00472431 -0.041574 0.0096376
-0.00510226 -0.034582 0.0417629
0.020976 0.00302356 0.0236216
0.0211649 0.00377945 -0.0119053
-0.0376055 -0.0130391 -0.00907068
-0.0377945 -0.0122832 0.0260782
0.00264562 0.00925966 -0.0495108
-0.0217318 -0.0177634 -0.0466762
-0.00661404 -0.00188973 -0.0247554
0.0151178 -0.0245664 -0.048377
0.00982658 -0.0340151 -0.0062361
0.0213539 -0.0515895 -0.0332592
-0.00245664 -0.0124722 -0.00529123
0.00831479 0.0268341 0.00680301
0.0215429 0.0546131 0.00661404
0.0249444 0.0445975 -0.00472431
0.0217318 0.048566 -0.0107714
Vibration 11
-0.00188973 -0.0166296 -0.00396842
-0.00132281 -0.0255113 -0.00226767
0.0075589 -0.0302356 0.00812582
0.0171965 -0.0241885 0.0145509
0.0179524 -0.0153068 0.0102045
0.00907068 -0.0107714 0.0041574
0.0185193 -0.0154958 0.0096376
0.00944863 0.00548021 0.00472431
0.0102045 0.0266451 0.00604712
-0.0145509 -0.0100155 -0.0119053
-0.0111494 -0.0166296 -0.00510226
-0.0175745 -0.0132281 -0.00566918
-0.0272121 -0.00510226 -0.0120942
-0.0383614 0.00529123 -0.0243775
-0.0319364 0.00170075 -0.0241885
-0.0266451 -0.00566918 -0.00793685
0.00793685 -0.034771 0.00850377
0.00944863 -0.0385504 0.00850377
0.00907068 -0.0219208 0.00377945
0.00718096 -0.00113384 -0.000944863
0.0062361 -0.00566918 0.00075589
0.00680301 -0.0226767 0.00548021
0.00642507 0.0285349 -0.00774788
0.0251334 -0.0336371 0.0366607
0.00510226 -0.0075589 -0.0075589
0.00245664 0.027779 -0.000566918
0.00245664 0.020787 -0.00151178
0.00132281 0.00812582 -0.00283459
0.00075589 -0.000188973 0
0.00340151 0.0370386 -0.000944863
0.00377945 0.0451645 -0.00075589
0.00264562 0.0349599 -0.00132281
0.00113384 0.0149288 -0.00264562
-0.00925966 0.0247554 0.013984
0.00170075 0.0680301 0.00302356
-0.0115273 -0.0170075 -0.0221098
-0.00774788 -0.0292908 -0.00888171
0.0171965 -0.0177634 0.00718096
-0.00151178 -0.0255113 0.00132281
-0.0128501 -0.0183303 0.000188973
-0.0521564 0.0164406 -0.0338261
-0.0398732 0.00812582 -0.0319364
0.0109604 -0.0515895 0.0117163
0.0100155 -0.0224877 0.00321253
0.00491329 0.0062361 -0.00226767
0.0062361 -0.0238105 0.0062361
-0.00245664 0.0428968 -0.013795
-0.00604712 0.0300466 -0.0124722
0.02759 0.0377945 -0.0020787
0.0438416 -0.0466762 0.0561249
-0.000188973 -0.061794 0.0661404
0.0684081 -0.0130391 0.0198421
0.00434637 0.0459203 -0.000188973
0.00510226 0.0612271 0.000188973
0.00321253 0.0427078 -0.000944863
0.000566918 0.00548021 -0.00340151
-0.00925966 0.0262672 0.0313695
Vibration 12
-0.0162516 -0.00264562 -0.0102045
-0.0160627 -0.00907068 -0.0166296
-0.0103935 -0.0126612 -0.00850377
-0.00396842 -0.00925966 0.00302356
-0.00359048 -0.00226767 0.0062361
-0.0102045 0.00075589 -0.0020787
0.00491329 0.00170075 0.0183303
-0.00982658 0.0062361 -0.00793685
-0.00925966 0.0105825 -0.0179524
-0.0124722 -0.00529123 -0.00604712
-0.0272121 0.00302356 -0.0177634
-0.00736993 -0.00812582 -0.00340151
0.0247554 -0.0266451 0.020787
0.0389284 -0.034582 0.0315584
0.0196532 -0.0234326 0.0177634
0.0500777 -0.041385 0.0408181
-0.0107714 -0.0168186 -0.00642507
-0.0158737 -0.0190862 -0.00283459
-0.0164406 -0.0113384 0.00113384
-0.0124722 -0.00113384 0.00170075
-0.00718096 -0.00434637 -0.000566918
-0.00699199 -0.0124722 -0.00472431
-0.0130391 0.0154958 0.00529123
-0.0570697 0.0200311 -0.0502667
0.0102045 -0.000944863 0.00188973
0.0120942 0.0185193 0.00188973
0.0111494 0.0113384 -0.000566918
0.00925966 -0.00321253 -0.00151178
0.00850377 -0.00396842 0.00188973
0.0124722 0.0270231 -0.00075589
0.0120942 0.0292908 -0.00132281
0.0100155 0.0128501 -0.0020787
0.00831479 -0.00453534 -0.00245664
0.00472431 0.0219208 0.0128501
0.0149288 0.048377 0.00491329
0.0109604 0.00170075 -0.00925966
-0.020409 -0.0119053 -0.0262672
0.00548021 0.00812582 0.0188973
-0.0542351 0.0185193 -0.0383614
-0.0175745 -0.0020787 -0.0113384
0.0672742 -0.0514005 0.0529123
0.0313695 -0.0298577 0.0264562
-0.0196532 -0.0249444 -0.0041574
-0.0198421 -0.0117163 0.00321253
-0.00359048 0.000944863 0.00075589
-0.00340151 -0.013795 -0.00642507
-0.0219208 0.0213539 0.00548021
-0.0154958 0.0187083 0.00566918
-0.00170075 0.020409 0.00774788
-0.0659514 0.0270231 -0.061983
-0.0228657 0.054991 -0.143052
-0.156091 0.020787 -0.00869274
0.0141729 0.0394953 0.000188973
0.013606 0.0447865 -0.00075589
0.0096376 0.0143619 -0.00264562
0.00699199 -0.0177634 -0.00321253
0.00604712 0.0296687 0.0239995
Vibration 13
0.00075589 0.00245664 0.0020787
0.00132281 -0.00604712 0.0134171
0.00982658 -0.0111494 0.00869274
0.0179524 -0.00548021 -0.00566918
0.0185193 0.00170075 -0.0141729
0.0102045 0.00566918 -0.00736993
0.0117163 -0.00132281 -0.0304246
0.0109604 0.034393 -0.0020787
0.0126612 0.0850377 0.00718096
-0.00453534 0.00566918 -0.000188973
-0.0119053 0.0122832 -0.00831479
-0.00566918 0.00888171 -0.00548021
0.00869274 -0.000377945 0.00491329
0.0111494 -0.00377945 0.00850377
0.00434637 0.000377945 0.00585815
0.0239995 -0.00888171 0.0141729
0.0109604 -0.0238105 0.0122832
0.0153068 -0.0249444 0.0100155
0.0151178 -0.0141729 0.00359048
0.0115273 -0.00321253 -0.000566918
0.00812582 -0.0202201 0.00529123
0.00850377 -0.0302356 0.0119053
0.0105825 0.0328812 -0.0128501
-0.00793685 0.00680301 -0.0141729
-0.00774788 0.0100155 -0.00566918
-0.0149288 0.000566918 0.00151178
-0.0130391 -0.00831479 0.00340151
-0.0130391 0.0330702 0.00680301
-0.0115273 0.020598 0.00264562
-0.0149288 -0.055369 -0.00151178
-0.0170075 -0.0491329 -0.00377945
-0.0153068 0.0141729 0.00075589
-0.0128501 0.0557469 0.0062361
-0.0156847 -0.0445975 -0.0181414
-0.020787 -0.0020787 0.000944863
-0.0253223 -0.00491329 0.0122832
-0.00548021 -0.0100155 0.0238105
0.0096376 -0.0103935 -0.0285349
-0.0221098 0.0198421 -0.0154958
-0.0109604 0.0128501 -0.0105825
0.0202201 -0.0107714 0.0149288
0.00736993 -0.00226767 0.00888171
0.0187083 -0.0306136 0.0130391
0.0179524 -0.0111494 0.00132281
0.00510226 -0.0217318 0.00377945
0.0062361 -0.0393063 0.0151178
0.00245664 0.048566 -0.0202201
-0.00774788 0.0370386 -0.0190862
0.0372276 0.0444086 -0.0100155
-0.00170075 0.00434637 -0.0132281
-0.00302356 0.0105825 -0.048566
-0.0402512 0.0158737 0
-0.0156847 -0.0973209 -0.00510226
-0.0192752 -0.0924076 -0.00944863
-0.0154958 0.0281569 -0.000188973
-0.0124722 0.102423 0.00944863
-0.0202201 -0.0714316 -0.0336371
Vibration 14
0.00548021 -0.000944863 -0.0385504
0.00453534 0.00377945 -0.0260782
0.000188973 0.00699199 0.041574
-0.00453534 0.00396842 0.0733214
-0.00472431 -0.00075589 0.0236216
0.000566918 -0.00245664 -0.0102045
-0.00831479 -0.0020787 0.0020787
-0.000377945 -0.013795 0.00472431
-0.00188973 -0.0326923 0.0319364
0.0041574 0.000188973 -0.0491329
-0.00661404 -0.0105825 -0.0404401
-0.00661404 -0.0120942 -0.0170075
0.00453534 0.000377945 -0.0041574
0.00661404 0.0175745 -0.0188973
0.00793685 0.0151178 -0.0402512
0.013984 -0.00850377 0.0353379
0 0.00812582 0.0449755
0.020976 0.00377945 0.0326923
0.0222988 -0.00170075 0.00699199
0.000377945 -0.00132281 -0.00585815
-0.0217318 0.00396842 0.00548021
-0.020787 0.00812582 0.0315584
0.000566918 -0.00812582 -0.0370386
-0.0130391 0.0357158 0.0236216
-0.0128501 -0.0041574 0.00736993
-0.00396842 -0.00812582 -0.00850377
-0.00604712 -0.00907068 -0.00944863
0.000944863 -0.00075589 -0.00888171
0.00170075 0.000188973 -0.0177634
-0.00812582 -0.0130391 -0.00302356
-0.00283459 -0.00359048 0.00359048
0.00453534 0.00944863 0.00340151
0.00680301 0.0105825 -0.00226767
0.0188973 0.0100155 -0.0230547
-0.00113384 -0.00774788 -0.00774788
-0.00453534 -0.00151178 -0.00302356
0.00812582 0.00510226 -0.0604712
-0.0103935 -0.00585815 -0.0283459
-0.0149288 -0.020598 -0.0506447
-0.0128501 -0.0226767 -0.00812582
0.0100155 0.0311805 -0.0122832
0.0143619 0.0255113 -0.048377
0.0383614 0.00453534 0.0428968
0.0396842 -0.00566918 -0.00226767
-0.0389284 0.00491329 -0.00491329
-0.0383614 0.0113384 0.0408181
0.020409 -0.000188973 -0.0523454
-0.0166296 -0.020787 -0.0502667
-0.0020787 -0.00888171 -0.0340151
-0.00359048 0.0196532 0.0610381
-0.0111494 0.034771 -0.0334482
-0.0423299 0.0818251 0.0389284
-0.0149288 -0.0222988 -0.00283459
-0.00491329 -0.00566918 0.00850377
0.00850377 0.0196532 0.00793685
0.0128501 0.0211649 -0.00245664
0.0188973 0.00793685 -0.0398732
Vibration 15
-0.00604712 -0.000566918 0.00453534
-0.00661404 0.000566918 -0.00604712
-0.00944863 0.00188973 -0.013795
-0.0100155 0.00075589 -0.00831479
-0.0103935 0.00151178 0.00283459
-0.00812582 0.000377945 0.00491329
-0.00132281 0.0062361 0.0181414
-0.00925966 -0.0332592 0.00151178
-0.0115273 -0.102234 -0.00566918
-0.00283459 -0.00302356 0.0100155
0.00566918 -0.00585815 0.0143619
0.00548021 -0.00548021 0.0100155
-0.00510226 -0.00359048 0.00113384
-0.00907068 -0.0041574 0.000566918
-0.00774788 -0.00453534 0.00510226
-0.0124722 0.00132281 -0.0105825
-0.0102045 0.00340151 -0.0151178
-0.0181414 0.00982658 -0.0119053
-0.0185193 0.00982658 -0.00340151
-0.0119053 0.00264562 0.00188973
-0.0041574 -0.00264562 -0.00132281
-0.00434637 -0.0020787 -0.0102045
-0.0119053 0.000377945 0.0126612
0.00377945 -0.013606 0.000944863
0.00321253 0.00321253 0.0141729
0.013795 0.0198421 0.00188973
0.0120942 -0.0226767 -0.00359048
0.013984 0.034582 0.00245664