[Molden Format]
[FREQ]
16.8
23.1
27.9
32.1
43.4
46.4
47.4
58.3
71.5
82.8
86.2
91.2
92.4
111.9
125.7
136.0
146.5
150.0
176.2
187.3
191.4
214.3
224.8
229.8
242.1
258.9
273.3
277.9
287.4
311.7
331.0
347.1
349.4
365.0
366.1
385.2
396.6
407.7
426.2
450.0
479.0
484.4
515.1
529.5
543.2
552.7
572.5
575.3
588.6
589.6
607.7
613.2
615.7
635.1
651.5
664.8
679.1
690.2
701.1
712.5
719.2
732.3
755.3
774.6
792.4
800.6
814.5
865.2
882.3
885.5
892.7
895.7
906.9
924.0
932.9
964.3
971.5
997.7
1007.1
1011.9
1014.5
1020.6
1022.9
1031.2
1035.3
1046.6
1072.9
1082.5
1085.5
1086.3
1109.2
1126.6
1134.9
1172.8
1177.1
1183.4
1188.6
1215.0
1238.6
1247.5
1260.0
1263.8
1265.8
1268.9
1269.6
1279.7
1284.2
1291.2
1294.4
1306.0
1313.2
1332.2
1333.2
1346.1
1347.4
1349.5
1352.7
1368.3
1382.3
1394.6
1396.0
1406.2
1428.8
1471.0
1510.7
1521.0
1522.5
1526.3
1538.8
1573.6
1589.3
1598.0
1654.0
1674.0
1692.8
1695.3
1705.2
1708.5
1713.5
1794.1
1838.7
1893.3
1902.9
2454.9
2646.2
2651.4
2653.0
2665.8
2669.0
2715.6
2728.6
2736.8
2741.3
2742.4
2744.7
2746.0
2748.1
2752.8
2758.5
2759.7
2760.6
2763.0
2767.8
2773.4
2778.4
       
[FR-COORD]
C -2.58741 -2.6647 -0.999665
C 0.0719986 -2.6647 -0.999665
C 1.39518 -0.411393 -0.999665
N 0.133604 1.86251 -0.983791
C -2.4591 1.93829 -0.651766
C -3.8626 -0.36056 -0.806724
N -3.52566 4.23809 -0.190673
C -6.52787 -0.258515 -0.624743
N -8.70861 -0.170075 -0.478479
C -3.93668 -5.06503 -1.16388
C -5.76045 -5.44241 -3.0538
C -7.02827 -7.72029 -3.22652
C -6.47534 -9.63458 -1.46321
C -4.66951 -9.28952 0.431424
C -3.39584 -6.99406 0.556524
O -7.85521 -11.7518 -1.8421
C 4.17119 -0.321253 -1.01611
C 5.44846 -0.424055 1.29238
C 8.06989 -0.254546 1.33339
C 9.41726 0.0258892 -0.921619
C 8.12507 0.0708647 -3.22879
C 5.50458 -0.102045 -3.28094
C 12.2192 0.2759 -0.873998
C -7.52016 -13.7844 -0.115651
C -2.48518 6.14066 1.56809
C -0.593185 5.2009 3.63772
C 1.94698 5.1221 3.02999
C 2.97008 5.36399 0.554257
C 1.62592 4.30139 -1.58964
C 3.81536 5.03631 5.15461
C 6.03446 6.71703 4.6183
C 6.71212 7.34858 2.24726
C 5.27234 6.43017 0.114895
O 1.49723 4.84696 -3.76415
O -1.67978 4.70958 5.60342
O -3.49675 8.14321 1.43468
H 1.09982 -4.45276 -1.05069
H 2.87862 5.59661 6.95589
H -6.17241 -3.93365 -4.40212
H -8.44821 -8.05477 -4.67707
H -4.25547 -10.7658 1.79241
H -1.98194 -6.69341 2.0307
H 4.38813 -0.586382 3.05795
H 9.07012 -0.30897 3.13052
H 9.17462 0.260215 -4.98793
H 4.49887 -0.0408181 -5.07958
H 12.9029 1.67864 -2.24821
H 13.1398 -1.53124 -1.33963
H 12.9403 0.86266 0.984547
H -8.86754 -15.1908 -0.841117
H -8.03493 -13.2156 1.80544
H -5.59038 -14.5197 -0.203335
H 4.48999 3.07345 5.48436
H 7.07306 7.37484 6.26104
H 8.33124 8.54213 1.84759
H 6.09172 6.58777 -1.75801
H -5.32581 4.57635 -0.832235

[FR-NORM-COORD]
Vibration 1
0.00661404 0.00340151 -0.0171965
0.00661404 0.00453534 -0.0185193
0.00566918 0.00510226 -0.0177634
0.00491329 0.00453534 -0.0153068
0.00434637 0.00340151 -0.0196532
0.00548021 0.00321253 -0.0217318
0.00321253 0.00321253 -0.0200311
0.00510226 0.00264562 -0.0262672
0.00491329 0.00264562 -0.0304246
0.00680301 0.00245664 -0.00661404
0.00585815 -0.00718096 -0.00359048
0.00245664 -0.00661404 0.0119053
-0.000377945 0.00453534 0.0247554
0.00264562 0.0134171 0.020409
0.0062361 0.0122832 0.00453534
-0.00604712 0.00510226 0.041385
0.00566918 0.00661404 -0.0190862
0.00774788 -0.0128501 -0.020976
0.0075589 -0.00869274 -0.0217318
0.00529123 0.0141729 -0.0202201
0.00340151 0.0323143 -0.0188973
0.00359048 0.0287238 -0.0181414
0.00472431 0.0196532 -0.0196532
-0.0158737 0.020409 0.0614161
-0.00472431 -0.00396842 -0.0075589
-0.0164406 -0.0153068 -0.00226767
-0.013606 -0.0187083 0.00982658
-0.000377945 -0.00699199 0.0164406
0.0075589 0.00793685 0.00377945
-0.0245664 -0.0372276 0.0187083
-0.0156847 -0.0423299 0.0396842
-0.0020787 -0.0296687 0.0468652
0.00491329 -0.0115273 0.034204
0.0160627 0.0211649 0.00680301
-0.0270231 -0.0217318 -0.0096376
-0.00226767 -0.00264562 -0.00491329
0.00718096 0.00491329 -0.0190862
-0.0315584 -0.0438416 0.0171965
0.00718096 -0.0153068 -0.0130391
0.00132281 -0.013984 0.0147399
0.0020787 0.0211649 0.0289128
0.00812582 0.0192752 0.00132281
0.0096376 -0.0306136 -0.0217318
0.00907068 -0.0232436 -0.0230547
0.00151178 0.0500777 -0.0181414
0.0020787 0.0438416 -0.0168186
0.00283459 0.0215429 -0.0185193
0.00812582 0.0215429 -0.020409
0.00283459 0.0198421 -0.0190862
-0.0239995 0.020598 0.076156
-0.0115273 0.0419519 0.0561249
-0.0198421 0.00925966 0.0670853
-0.0334482 -0.041574 0.0111494
-0.020787 -0.0568808 0.0487549
0.0041574 -0.0330702 0.062172
0.0145509 -0.00245664 0.0391173
0.00642507 0.00548021 -0.027401
Vibration 2
0.00396842 -0.00812582 -0.00699199
0.00396842 -0.00699199 -0.00548021
0.00264562 -0.0062361 -0.00377945
0.000566918 -0.00699199 -0.00548021
0.000944863 -0.00869274 -0.00132281
0.00226767 -0.00925966 -0.00434637
0.00170075 -0.0103935 0.00774788
0.00226767 -0.0109604 -0.00396842
0.00226767 -0.0122832 -0.00377945
0.00226767 -0.00718096 -0.00869274
0.00359048 -0.00472431 -0.0105825
-0.00510226 0 -0.00699199
-0.0158737 0.00245664 -0.000944863
-0.0143619 -0.00151178 -0.00170075
-0.00510226 -0.0062361 -0.00548021
-0.027401 0.00888171 0.00529123
0.00245664 0.000377945 0.00472431
-0.00566918 -0.0264562 0.00812582
-0.00699199 -0.0075589 0.020976
-0.000377945 0.0376055 0.0306136
0.00850377 0.0595264 0.0258892
0.0100155 0.041385 0.0130391
-0.00302356 0.0633058 0.0466762
-0.0491329 0.0175745 0.0198421
0.00661404 -0.0156847 0.0111494
0.0175745 -0.0198421 -0.000377945
0.0149288 -0.0103935 -0.0126612
0.00170075 -0.00264562 -0.0173855
-0.0041574 -0.00604712 -0.0117163
0.0266451 -0.0105825 -0.0230547
0.0164406 0.00075589 -0.0298577
0.0020787 0.00888171 -0.0319364
-0.00434637 0.00680301 -0.0266451
-0.0117163 -0.00793685 -0.0119053
0.027779 -0.0304246 0.00264562
0.00359048 -0.0164406 0.0222988
0.00472431 -0.00642507 -0.00529123
0.034393 -0.0215429 -0.0158737
0.0109604 -0.00585815 -0.0141729
-0.00491329 0.00226767 -0.00774788
-0.0202201 -0.00075589 0.000944863
-0.00453534 -0.00907068 -0.00566918
-0.0111494 -0.0612271 0.00151178
-0.013606 -0.0272121 0.0239995
0.013984 0.0925966 0.0326923
0.0166296 0.0599043 0.0100155
-0.00718096 0.0697309 0.0514005
0.0160627 0.0716206 0.0517785
-0.0198421 0.0693529 0.0512116
-0.0631168 0.0262672 0.0289128
-0.0445975 0.0359048 0.0156847
-0.0565028 -0.0020787 0.0257003
0.0372276 -0.00907068 -0.0349599
0.0213539 0.0020787 -0.0334482
-0.00529123 0.0170075 -0.0374166
-0.013606 0.0124722 -0.0302356
0 -0.00850377 0.013795
Vibration 3
-0.0147399 0.0105825 0.00661404
-0.0143619 0.00736993 0.00434637
-0.0115273 0.00548021 -0.0020787
-0.00888171 0.00680301 -0.00831479
-0.00831479 0.0109604 -0.00434637
-0.0117163 0.0124722 0.00226767
-0.00283459 0.013606 -0.00529123
-0.0113384 0.0166296 0.00491329
-0.0109604 0.0202201 0.00680301
-0.0130391 0.00925966 0.0122832
-0.0164406 0.00396842 0.0166296
-0.00359048 -0.00302356 0.013984
0.0134171 -0.00529123 0.0062361
0.0120942 0.00245664 0.0062361
-0.00151178 0.0096376 0.00925966
0.0306136 -0.0153068 -0.000566918
-0.0113384 0.000944863 0.000944863
-0.0147399 -0.0444086 0.00075589
-0.0145509 -0.0457314 0.0075589
-0.0115273 -0.0020787 0.0149288
-0.00812582 0.0417629 0.013984
-0.00812582 0.0436527 0.00699199
-0.0115273 -0.00302356 0.0247554
0.0667073 -0.0281569 -0.0226767
0.00604712 0.013984 -0.0100155
0.00321253 0.00944863 -0.00907068
0.00264562 -0.00472431 -0.00944863
0.00396842 -0.00661404 -0.00925966
-0.00491329 0.0041574 -0.00907068
0.00302356 -0.0238105 -0.0107714
0.0154958 -0.0393063 -0.0075589
0.0190862 -0.0383614 -0.0062361
0.0113384 -0.0224877 -0.00793685
-0.0096376 0.00907068 -0.00736993
0.000944863 0.0173855 -0.00831479
0.0128501 0.0171965 -0.0128501
-0.0166296 0.00604712 0.00718096
0.00831479 -0.0215429 -0.00869274
-0.0279679 0.00472431 0.020787
-0.00491329 -0.00774788 0.0162516
0.0215429 0.00264562 0.00359048
-0.00188973 0.0151178 0.00850377
-0.0168186 -0.0791795 -0.00396842
-0.0170075 -0.0808803 0.00793685
-0.00566918 0.0748331 0.0188973
-0.00548021 0.0784236 0.00661404
-0.00491329 -0.00396842 0.027401
-0.0109604 -0.00396842 0.0291018
-0.0188973 -0.00302356 0.02759
0.0873053 -0.0417629 -0.034393
0.061794 -0.0555579 -0.0156847
0.0780457 0.00264562 -0.0340151
-0.0117163 -0.0300466 -0.0170075
0.020976 -0.0510226 -0.00642507
0.02759 -0.0491329 -0.00396842
0.0115273 -0.0241885 -0.00793685
-0.00302356 0.0170075 -0.00245664
Vibration 4
0.00680301 -0.013795 0.020976
0.00680301 -0.0143619 0.0190862
0.0062361 -0.0141729 0.013984
0.0062361 -0.013795 0.0102045
0.00642507 -0.0120942 0.0107714
0.00736993 -0.013606 0.0232436
0.00396842 -0.00982658 -0.00793685
0.00812582 -0.0147399 0.0368497
0.00888171 -0.0164406 0.0498888
0.00283459 -0.0109604 0.0120942
0.0020787 0.00453534 0.00925966
-0.0062361 0.0102045 -0.00245664
-0.013984 -0.000188973 -0.0113384
-0.0122832 -0.0164406 -0.0100155
-0.00377945 -0.0215429 0.00170075
-0.0232436 0.00774788 -0.0217318
0.0062361 -0.00812582 0.00529123
0.0164406 -0.00907068 -0.000566918
0.0153068 0.0124722 -0.0107714
0.00377945 0.0349599 -0.0149288
-0.00566918 0.0302356 -0.00982658
-0.00434637 0.00869274 0.000377945
0.00113384 0.0667073 -0.0247554
-0.0326923 -0.00226767 -0.0319364
0.00283459 0.0107714 -0.0292908
-0.0096376 0.0292908 -0.00982658
-0.0075589 0.00718096 0.00226767
0.0062361 -0.0134171 0.00604712
0.00907068 -0.0166296 0.00566918
-0.0181414 0.00510226 0.0115273
-0.00340151 -0.013795 0.0134171
0.0120942 -0.0308025 0.0134171
0.0153068 -0.0311805 0.0113384
0.0143619 -0.0228657 0.00377945
-0.0211649 0.0597153 -0.00850377
0.00699199 0.0109604 -0.0574477
0.00661404 -0.0143619 0.0198421
-0.0224877 0.0213539 0.00434637
0.00812582 0.0124722 0.0162516
-0.00699199 0.0224877 -0.00453534
-0.0175745 -0.0249444 -0.0177634
-0.00264562 -0.034204 0.00321253
0.0255113 -0.0249444 0.00302356
0.0232436 0.0134171 -0.0151178
-0.0143619 0.0451645 -0.0134171
-0.0122832 0.00680301 0.00472431
-0.0190862 0.0718096 -0.0294797
0.0200311 0.0763449 -0.0243775
0.000188973 0.0784236 -0.0281569
-0.0398732 0.00774788 -0.0381725
-0.0289128 -0.00925966 -0.0289128
-0.0362827 -0.0113384 -0.0362827
-0.034204 0.00170075 0.0247554
-0.0062361 -0.0128501 0.0149288
0.0222988 -0.0444086 0.0147399
0.0247554 -0.0457314 0.0141729
0.00359048 -0.0177634 -0.0109604
Vibration 5
0.0153068 -0.00113384 -0.00377945
0.0147399 0.00642507 -0.0166296
0.00831479 0.0107714 -0.013984
0.0020787 0.00699199 -0.0105825
0.00302356 -0.00075589 -0.00170075
0.0100155 -0.00529123 0.0122832
-0.00434637 -0.00226767 -0.00850377
0.0119053 -0.0171965 0.048188
0.013606 -0.0294797 0.0818251
0.0175745 -0.0020787 -0.00661404
0.0107714 0.00585815 -0.00188973
0.00396842 0.00982658 -0.00132281
0.00321253 0.0062361 -0.00491329
0.0134171 -0.00340151 -0.0130391
0.020976 -0.00736993 -0.013795
-0.00888171 0.0132281 0.000188973
0.00850377 0.0111494 -0.0096376
0.00283459 -0.0319364 -0.00831479
0.00396842 -0.054991 -0.000188973
0.0115273 -0.0349599 0.00680301
0.0162516 0.0187083 0.00529123
0.0145509 0.0421409 -0.00283459
0.0149288 -0.0744552 0.0162516
-0.0251334 0.0179524 0.00869274
-0.013795 0.00245664 -0.00869274
-0.0141729 0.00718096 -0.00699199
-0.0141729 0.00699199 -0.00642507
-0.0122832 0.0145509 -0.00529123
-0.00472431 0.0117163 -0.00812582
-0.013795 0.00075589 -0.00718096
-0.0213539 0.013606 0.00170075
-0.0221098 0.0249444 0.00434637
-0.0156847 0.0241885 0.000188973
-0.00132281 0.0105825 -0.00869274
-0.0147399 0.00718096 -0.00718096
-0.0200311 -0.00075589 -0.0117163
0.0198421 0.0096376 -0.0260782
-0.0154958 -0.0151178 -0.00321253
0.0103935 0.00944863 0.00245664
-0.00188973 0.0160627 0.00283459
0.0151178 -0.0075589 -0.0179524
0.0281569 -0.0143619 -0.0194642
-0.00188973 -0.0510226 -0.0130391
-0.000188973 -0.0914627 0.00113384
0.0211649 0.0400622 0.0105825
0.0188973 0.0818251 -0.00396842
0.0387394 -0.0693529 0.0332592
-0.00982658 -0.08277 -0.00132281
0.0188973 -0.105636 0.0245664
-0.0408181 0.0279679 0.0183303
-0.0151178 0.0315584 0.00736993
-0.0326923 -0.00132281 0.00736993
-0.00510226 0.00132281 -0.0211649
-0.0262672 0.0130391 0.00491329
-0.02759 0.0340151 0.0096376
-0.0132281 0.0306136 0.00188973
-0.00510226 -0.0102045 -0.0103935
Vibration 6
0.00264562 -0.000377945 0.0062361
0.00245664 0.00472431 0.0149288
-0.00283459 0.00793685 0.013795
-0.00812582 0.00472431 0.0143619
-0.00888171 -0.000944863 0.0147399
-0.00377945 -0.0041574 0.00340151
-0.0132281 -0.00604712 0.0241885
-0.00529123 -0.0124722 -0.0170075
-0.00680301 -0.020976 -0.0360938
0.00907068 -0.00396842 -0.00188973
0.0417629 -0.0175745 -0.0302356
0.0478101 -0.020409 -0.0372276
0.0187083 -0.0075589 -0.013984
-0.0126612 0.00604712 0.0132281
-0.0162516 0.00774788 0.0188973
0.0264562 -0.0111494 -0.0226767
-0.00302356 0.0096376 0.0075589
0.00434637 -0.00699199 0.00245664
0.00529123 -0.0175745 -0.00585815
-0.00132281 -0.0113384 -0.00907068
-0.0096376 0.0100155 -0.0041574
-0.0103935 0.0202201 0.0041574
0.000377945 -0.0287238 -0.0183303
-0.0379835 0.0202201 0.0266451
-0.00453534 0.00680301 0.00699199
0.00340151 0.0238105 0.00850377
0.00188973 0.0151178 0.00377945
-0.00075589 0.00113384 0.00170075
-0.0175745 0.00869274 0.00850377
0.00434637 0.0132281 0.0020787
0.020787 -0.0126612 -0.0103935
0.0219208 -0.0283459 -0.0141729
0.00718096 -0.020409 -0.0075589
-0.0400622 0.0175745 0.0120942
0.00774788 0.0438416 0.0158737
-0.00944863 0.00377945 -0.000566918
0.00585815 0.00661404 0.0188973
0.0117163 0.0349599 -0.000944863
0.0612271 -0.0257003 -0.0451645
0.0721875 -0.0313695 -0.0585815
-0.0326923 0.0147399 0.0287238
-0.0391173 0.0183303 0.0387394
0.0102045 -0.0128501 0.00529123
0.0113384 -0.0317474 -0.0096376
-0.0151178 0.0171965 -0.00661404
-0.0164406 0.034771 0.00812582
0.00377945 -0.0241885 -0.0119053
-0.0126612 -0.0313695 -0.0334482
0.0111494 -0.0449755 -0.0173855
-0.0398732 0.0222988 0.0258892
-0.0729434 0.0651955 0.00396842
-0.0451645 -0.00548021 0.0835259
-0.0149288 0.00850377 0.0149288
0.0317474 -0.0175745 -0.0153068
0.0336371 -0.0468652 -0.0219208
0.00283459 -0.0315584 -0.0103935
-0.0187083 -0.0117163 0.0357158
Vibration 7
-0.00264562 -0.00170075 0.0238105
-0.00264562 -0.00736993 0.0379835
0.00170075 -0.0100155 0.0251334
0.0062361 -0.00736993 0.0130391
0.00548021 -0.000566918 0.00396842
0.00113384 0.0020787 0.00321253
0.00888171 0.00302356 -0.00529123
-0.000377945 0.0113384 -0.0232436
-0.00151178 0.020787 -0.0472432
-0.00642507 0.000566918 0.0211649
0.00642507 0.000944863 0.00850377
0.00812582 0.000944863 -0.00151178
-0.00321253 -0.000188973 0.00075589
-0.0194642 0.00075589 0.0160627
-0.020976 0.00113384 0.0264562
0.00359048 -0.0020787 -0.013984
0.00188973 -0.0120942 0.0120942
0.0190862 -0.0498888 0.000377945
0.0194642 -0.0472432 -0.0171965
0.0020787 -0.00736993 -0.0224877
-0.0154958 0.0308025 -0.0120942
-0.0153068 0.0289128 0.00548021
0.00226767 -0.00585815 -0.0406291
0.000188973 -0.00812582 -0.020598
0.00321253 -0.00113384 0.00245664
-0.000377945 -0.00585815 0.00359048
-0.000566918 -0.000566918 0.00321253
-0.00264562 0.00642507 0.00245664
0.0145509 -0.0149288 0.00321253
0.00396842 0.0041574 -0.00132281
-0.0222988 0.041574 0.00529123
-0.0304246 0.055369 0.00642507
-0.0147399 0.034204 0.00472431
0.0368497 -0.0387394 -0.00434637
-0.00170075 -0.0128501 0.000944863
0.00491329 -0.000377945 0.00264562
-0.00604712 -0.00982658 0.0531013
0.00075589 -0.0268341 0.0062361
0.0160627 0.00113384 0.00566918
0.0185193 0.00113384 -0.0119053
-0.0298577 0.00075589 0.0192752
-0.0326923 0.00132281 0.0376055
0.0332592 -0.0820141 0.00548021
0.0334482 -0.0769118 -0.0258892
-0.0292908 0.0629279 -0.0170075
-0.0296687 0.0602823 0.0141729
-0.00774788 0.00472431 -0.034582
0 -0.00188973 -0.0608492
0.0147399 -0.0196532 -0.0410071
0.0102045 -0.0102045 -0.0353379
-0.0143619 -0.0183303 -0.0215429
0.00340151 -0.000566918 -0.0113384
0.0338261 0.0107714 -0.0234326
-0.034582 0.0559359 0.00718096
-0.0491329 0.0812582 0.00850377
-0.0130391 0.0408181 0.00604712
0.0124722 0.00604712 -0.0134171
Vibration 8
-0.00812582 0.00888171 0.0120942
-0.00888171 0.00321253 0.000944863
-0.00491329 0.00113384 -0.00907068
-0.00151178 0.00283459 -0.0160627
0 0.00869274 -0.00831479
-0.0041574 0.0107714 0.013795
0.00680301 0.0153068 -0.0190862
-0.00226767 0.0103935 0.0444086
-0.000188973 0.00736993 0.0742662
-0.0113384 0.0100155 0.0166296
0.0304246 -0.00736993 -0.0198421
0.0447865 -0.0143619 -0.0336371
0.013984 -0.000377945 -0.00869274
-0.0370386 0.0228657 0.0355268
-0.0474321 0.0281569 0.0474321
0.041574 -0.013984 -0.034582
-0.00491329 -0.00245664 -0.00774788
-0.00944863 0.0143619 -0.00434637
-0.0100155 0.0196532 0.000188973
-0.00604712 0.00699199 0.00113384
-0.000944863 -0.0147399 -0.0020787
-0.000566918 -0.0190862 -0.00661404
-0.00699199 0.0177634 0.00604712
-0.00831479 0.00869274 0.00170075
0.00642507 0.00132281 -0.00566918
-0.00113384 -0.0230547 -0.0105825
-0.000377945 -0.0187083 -0.00869274
-0.000377945 -0.0020787 -0.00736993
0.00699199 -0.000566918 -0.0128501
-0.000944863 -0.0285349 -0.00888171
-0.00793685 -0.0153068 0.00302356
-0.0100155 0.00321253 0.00736993
-0.00434637 0.0096376 0.000566918
0.020409 -0.0041574 -0.0145509
-0.00472431 -0.0466762 -0.0185193
0.0175745 0.0075589 0.00302356
-0.0128501 0.000566918 0.00377945
-0.00340151 -0.0457314 -0.00491329
0.0525344 -0.0162516 -0.0360938
0.0788016 -0.0306136 -0.0631168
-0.0650066 0.0355268 0.0578256
-0.082581 0.0453534 0.0776677
-0.0134171 0.0241885 -0.00566918
-0.013795 0.034393 0.00283459
0.00264562 -0.0272121 -0.00132281
0.00321253 -0.034582 -0.00925966
-0.00907068 0.0102045 -0.00245664
0.000944863 0.0179524 0.0217318
-0.013984 0.034393 0.00359048
0.0149288 -0.0020787 -0.020598
-0.0663294 0.0325033 -0.020976
-0.00491329 0.00982658 0.0684081
0.00699199 -0.0279679 -0.0228657
-0.0113384 -0.0217318 0.0075589
-0.0153068 0.0132281 0.0156847
-0.00283459 0.0224877 0.00226767
0.0113384 0.0217318 -0.0268341
Vibration 9
-0.0175745 0.00075589 -0.0377945
-0.0170075 -0.00831479 -0.0557469
-0.0100155 -0.013606 -0.027779
-0.000566918 -0.00774788 0.0075589
0.000188973 -0.00151178 0.0107714
-0.00812582 0.00245664 -0.00718096
0.00396842 -0.0041574 0.0260782
-0.00699199 0.00699199 0.00718096
-0.00604712 0.00907068 0.0198421
-0.0175745 -0.000188973 -0.0336371
-0.0175745 -0.0181414 -0.0289128
-0.00434637 -0.027401 -0.0168186
0.00680301 -0.0156847 -0.00774788
0.00585815 0.0041574 -0.0102045
-0.00604712 0.0109604 -0.0241885
0.0221098 -0.0281569 0.00510226
-0.0100155 -0.0187083 -0.0222988
-0.0196532 -0.0247554 -0.0170075
-0.020598 -0.0162516 -0.00548021
-0.0124722 -0.000377945 0.00132281
-0.00226767 -0.000566918 -0.00434637
-0.00170075 -0.0102045 -0.0162516
-0.0145509 0.0192752 0.0168186
0.00699199 0.00151178 0.0432747
0.0151178 0.0075589 0.00850377
0.0111494 0.0228657 0.0192752
0.00925966 0.000944863 0.0162516
0.00718096 -0.0075589 0.0141729
0.0160627 -0.0168186 0.013984
0.013984 0.00661404 0.0120942
-0.00642507 0.034204 0.0122832
-0.0109604 0.0319364 0.0102045
0.000944863 0.00680301 0.0130391
0.0393063 -0.0279679 0.00944863
0.0100155 0.0599043 0.027779
0.020976 0.00944863 -0.00850377
-0.0236216 -0.0113384 -0.0861715
0.0134171 -0.0143619 0.0179524
-0.0287238 -0.0260782 -0.0340151
-0.00340151 -0.0425188 -0.0143619
0.0153068 0.013606 -0.00283459
-0.00548021 0.0255113 -0.02759
-0.0264562 -0.034393 -0.0221098
-0.02759 -0.0200311 -0.00151178
0.00453534 0.00831479 0.00075589
0.00548021 -0.00793685 -0.0202201
-0.013795 0.0062361 0.00396842
0.00075589 0.0192752 0.0468652
-0.0321253 0.047999 0.0147399
0.00982658 -0.00907068 0.0587705
-0.00510226 0.0355268 0.0300466
0.00642507 -0.00283459 0.068975
0.0368497 0.0120942 -0.00302356
-0.0181414 0.0544241 0.0113384
-0.0249444 0.0496998 0.00642507
0.00321253 0.00245664 0.013606
-0.000566918 -0.00377945 0.0370386
Vibration 10
-0.0103935 0.00529123 0.0141729
-0.0100155 0.0041574 0.0243775
-0.00812582 0.00245664 0.0187083
-0.0062361 0.00321253 0.00472431
-0.00661404 0.00642507 0.00113384
-0.00907068 0.00718096 0.00604712
-0.000944863 0.0107714 -0.0062361
-0.00888171 0.0156847 0.00283459
-0.00869274 0.027401 0.00075589
-0.000944863 0.00113384 0.00472431
-0.0198421 0.00944863 0.0213539
-0.00359048 0.00132281 0.00793685
0.0287238 -0.0145509 -0.0198421
0.0531013 -0.0262672 -0.0406291
0.0376055 -0.0187083 -0.0287238
0.0402512 -0.020787 -0.0272121
-0.00831479 -0.000377945 0.0170075
-0.00264562 0.00264562 0.0134171
-0.0020787 0.00283459 0.00604712
-0.00888171 -0.000377945 0.0020787
-0.0151178 -0.00472431 0.00491329
-0.0147399 -0.00472431 0.0124722
-0.00907068 0.00377945 -0.0117163
-0.0430858 0.0239995 0.0419519
0.0103935 0.00699199 -0.00888171
0.00075589 -0.0100155 -0.00661404
0.00170075 -0.00642507 -0.00245664
0.000188973 0 -0.00283459
-0.00075589 -0.00132281 -0.00151178
0.00188973 -0.0103935 -0.00359048
-0.000377945 -0.00642507 -0.000944863
-0.00245664 0.000944863 0.000377945
-0.00170075 0.0041574 -0.00170075
0.00151178 -0.00699199 -0.00321253
-0.00642507 -0.0258892 -0.0149288
0.0300466 0.0162516 -0.0143619
-0.0102045 0.00377945 0.0328812
0.00188973 -0.0158737 -0.00188973
-0.0470542 0.0221098 0.0436527
-0.0173855 0.00793685 0.0196532
0.0840928 -0.0421409 -0.0672742
0.055369 -0.027779 -0.0438416
0.0020787 0.00472431 0.0164406
0.00245664 0.00585815 0.00340151
-0.0192752 -0.00793685 0.0020787
-0.0200311 -0.00812582 0.0153068
-0.0323143 0.0912738 0.0650066
-0.0075589 0.0364717 -0.13436
0.0122832 -0.107147 0.0147399
-0.076156 0.041574 0.069164
-0.0496998 0.0980768 0.0181414
-0.0638727 -0.0351489 0.0874943
0.00453534 -0.0102045 -0.00850377
0 -0.00944863 0.000188973
-0.00434637 0.00434637 0.00283459
-0.00245664 0.00925966 -0.00151178
0.00188973 0.0170075 -0.00888171
Vibration 11
-0.00113384 0.00113384 0.0115273
-0.000944863 0.0020787 0.0160627
-0.00151178 0.00226767 0.00907068
-0.0020787 0.00188973 0.00245664
-0.00226767 0.00170075 0.00245664
-0.00188973 0.00132281 0.00529123
-0.00113384 0.00302356 -0.00075589
-0.0020787 0.00396842 -0.00075589
-0.00245664 0.00831479 -0.00680301
0.00283459 -0.000566918 0.00661404
-0.00472431 0.00604712 0.0124722
-0.000377945 0.0041574 0.00472431
0.0107714 -0.00434637 -0.00812582
0.020787 -0.0124722 -0.0160627
0.0166296 -0.0105825 -0.00869274
0.0134171 -0.00491329 -0.013795
-0.00170075 0.00188973 0.0041574
0.00302356 -0.00113384 0.00188973
0.00245664 -0.00113384 -0.00396842
-0.00170075 0.00113384 -0.00718096
-0.00585815 0.0020787 -0.00396842
-0.00661404 0.00321253 0.0020787
-0.00113384 -0.0075589 0.00151178
-0.0213539 0.0102045 0.0105825
0.00264562 0.00245664 -0.0020787
-0.000566918 -0.00340151 -0.00151178
-0.000377945 -0.00340151 -0.00113384
-0.00188973 0.00170075 -0.00151178
-0.00283459 0.00151178 -0.00075589
0.000944863 -0.00850377 -0.00283459
-0.00151178 -0.00434637 -0.000188973
-0.00377945 0.00245664 0.000944863
-0.00340151 0.00510226 -0.000566918
-0.00491329 0.000566918 -0.000944863
-0.00264562 -0.00850377 -0.0041574
0.00925966 0.00548021 -0.00453534
0 0.00245664 0.0219208
0.00170075 -0.0149288 -0.000377945
-0.013795 0.0126612 0.0226767
-0.00604712 0.0096376 0.00907068
0.0315584 -0.020598 -0.0281569
0.0238105 -0.0170075 -0.0143619
0.00642507 -0.00377945 0.00359048
0.00774788 -0.00302356 -0.00699199
-0.0109604 0.00188973 -0.00699199
-0.0102045 0.00529123 0.00396842
0.0548021 -0.296309 -0.262672
-0.00831479 -0.113762 0.396653
-0.048566 0.363016 -0.0961871
-0.0321253 0.0171965 0.0168186
-0.027779 0.0362827 0.00113384
-0.0289128 -0.0122832 0.0311805
0.00340151 -0.00869274 -0.00944863
-0.00151178 -0.00680301 0.000944863
-0.00585815 0.00585815 0.00283459
-0.00396842 0.00907068 -0.000377945
-0.000188973 0.00434637 -0.00132281
Vibration 12
-0.00699199 0.0041574 -0.00774788
-0.00680301 -0.00132281 -0.00774788
-0.00132281 -0.00472431 -0.000377945
0.00434637 -0.00113384 0.0020787
0.00396842 0.00359048 -0.0113384
-0.00113384 0.00699199 -0.00642507
0.00321253 0.0075589 -0.0251334
0 0.0162516 0.00907068
0.00170075 0.027401 0.0270231
-0.00869274 0.00529123 -0.00548021
-0.0111494 0.0020787 -0.00226767
-0.00340151 -0.00264562 -0.00302356
0.00548021 -0.00245664 -0.00585815
0.00491329 0.00264562 -0.00604712
-0.0020787 0.0062361 -0.00642507
0.0177634 -0.0100155 -0.00869274
-0.00132281 -0.00812582 0.00132281
0.00132281 -0.0213539 -0.00075589
0.00132281 -0.0200311 -0.00396842
-0.0020787 -0.00113384 -0.00359048
-0.00491329 0.0122832 -0.00188973
-0.00453534 0.00774788 0.00075589
-0.00283459 0.00680301 -0.00472431
-0.00170075 0.00642507 0.0147399
-0.0289128 -0.0102045 0.00925966
-0.0109604 -0.00661404 -0.00925966
-0.00548021 0.0434637 0.000944863
0.0115273 -0.000944863 0.00661404
0.0168186 -0.00718096 0.00472431
-0.0266451 0.0980768 0.0243775
0.0120942 0.0360938 -0.00510226
0.0430858 -0.0372276 -0.0153068
0.0332592 -0.0498888 -0.00226767
0.0400622 -0.020976 0
-0.0020787 -0.0496998 -0.0145509
-0.0651955 -0.0253223 0.0466762
-0.0105825 -0.00359048 -0.0115273
-0.0387394 0.183681 -0.00812582
-0.0187083 0.00226767 0.000377945
-0.00377945 -0.0062361 -0.00188973
0.0105825 0.00340151 -0.00699199
-0.00132281 0.0096376 -0.0075589
0.00453534 -0.0302356 0.000188973
0.00396842 -0.0313695 -0.00566918
-0.00774788 0.0266451 -0.00188973
-0.00718096 0.0183303 0.00245664
-0.00434637 -0.00774788 -0.0200311
0.0020787 0.00340151 0.0175745
-0.00661404 0.0302356 -0.0105825
0.000377945 0.00283459 0.0181414
-0.0153068 0.0270231 0.00491329
-0.00302356 0.000377945 0.0370386
-0.0672742 0.0976988 0.108659
0.0170075 0.0523454 -0.0145509
0.0746442 -0.0857936 -0.0328812
0.041574 -0.0952422 -0.00226767
0.00793685 0.00680301 -0.0402512
Vibration 13
-0.00377945 -0.00491329 -0.0143619
-0.00396842 -0.00132281 -0.0153068
-0.0062361 0.000377945 0.00226767
-0.00718096 -0.000944863 0.0147399
-0.0105825 -0.00642507 0.00491329
-0.00736993 -0.0075589 -0.00396842
-0.00585815 -0.00642507 0.00774788
-0.00718096 -0.0194642 0.00283459
-0.00736993 -0.0362827 0.0107714
-0.00321253 -0.00604712 -0.0149288
0.00151178 -0.0134171 -0.0179524
-0.00321253 -0.0117163 -0.00793685
-0.0122832 -0.00302356 0.00434637
-0.0154958 0.00377945 0.00604712
-0.0111494 0.00188973 -0.00359048
-0.0202201 -0.000377945 0.0171965
-0.00680301 0.00529123 0.00302356
-0.00434637 -0.00453534 0.00113384
-0.00396842 -0.00907068 -0.00245664
-0.00718096 0.000188973 -0.00321253
-0.0105825 0.0192752 -0.000944863
-0.0105825 0.020787 0.0020787
-0.00585815 -0.0124722 -0.00642507
0.0151178 -0.0130391 -0.00453534
0.0436527 -0.000188973 -0.0279679
0.00944863 -0.0325033 -0.00566918
0.0179524 0.00982658 0.0219208
0.0179524 -0.00925966 0.0213539
-0.0111494 0.00793685 0.0285349
0.00548021 0.0676522 0.0340151
0.000377945 0.0674632 0.00925966
0.0124722 0.0171965 -0.000377945
0.0200311 -0.0192752 0.0100155
-0.05518 0.0455424 0.0410071
-0.020598 -0.0854156 -0.0374166
0.113384 0.0315584 -0.0668963
-0.00170075 0.000377945 -0.0270231
-0.00793685 0.102045 0.0156847
0.00812582 -0.0200311 -0.027401
-0.000377945 -0.0166296 -0.0096376
-0.0221098 0.0109604 0.0158737
-0.0143619 0.00718096 -0.00170075
-0.00188973 -0.00850377 0.0020787
-0.00113384 -0.0196532 -0.00434637
-0.0132281 0.0313695 -0.00113384
-0.0132281 0.0319364 0.0041574
0.000944863 -0.0241885 -0.0149288
-0.0153068 -0.0200311 0.00396842
-0.00245664 -0.00510226 -0.0102045
0.0222988 -0.0194642 -0.00529123
0.0264562 -0.034771 0.00510226
0.0213539 0.00604712 -0.027779
0.0153068 0.0786126 0.0808803
-0.0117163 0.107525 0.000944863
0.013984 0.0100155 -0.0166296
0.0221098 -0.0432747 0.00944863
-0.00566918 0.00283459 0.0170075
Vibration 14
-0.00359048 0.00888171 -0.00944863
-0.0041574 0.0120942 0.00642507
-0.0128501 0.0158737 0.0200311
-0.0183303 0.0128501 0.0173855
-0.0194642 0.00907068 0.0130391
-0.0117163 0.0041574 0
-0.0217318 0.00510226 0.020598
-0.0130391 -0.02759 -0.000566918
-0.0149288 -0.075967 0.000944863
0.00548021 0.00510226 -0.0232436
0.0109604 -0.00245664 -0.0264562
0.00718096 -0.00151178 -0.0154958
-0.000188973 0.00869274 -0.0020787
0.00718096 0.0109604 -0.00944863
0.00888171 0.00982658 -0.0190862
-0.020787 0.0171965 0.0270231
-0.013795 0.0300466 0.0221098
-0.00699199 0.0400622 0.0181414
-0.00585815 0.0317474 0.00661404
-0.013984 0.0107714 -0.000566918
-0.0234326 0.0234326 0.00491329
-0.0236216 0.0328812 0.0162516
-0.00944863 -0.0364717 -0.0175745
0.0239995 0.00661404 0.0062361
0.00113384 0.0096376 0.00396842
-0.000377945 -0.00245664 0.000377945
-0.000944863 0.00699199 -0.00075589
-0.00661404 0.0128501 -0.00245664
0.0147399 -0.0128501 -0.00245664
0.00132281 -0.00529123 -0.00340151
0.0228657 -0.0359048 -0.0075589
0.013984 -0.0198421 -0.00585815
-0.00548021 0.0107714 -0.00529123
0.089573 -0.0776677 -0.0238105
-0.00151178 -0.0219208 -0.00491329
0.0198421 0.0183303 -0.00283459
0.000566918 0.0151178 0.0062361
0.00888171 0.0153068 -0.00529123
0.0158737 -0.00907068 -0.0351489
0.00793685 -0.00699199 -0.0147399
0.00831479 0.0154958 -0.00491329
0.0105825 0.0141729 -0.0213539
-0.00132281 0.0500777 0.0222988
0.00132281 0.0360938 0.00264562
-0.0302356 0.0213539 0.00075589
-0.0323143 0.0406291 0.0211649
0.00831479 -0.0570697 -0.0294797
-0.0449755 -0.0561249 -0.0124722
0.0113384 -0.0394953 -0.0249444
0.0147399 0.00585815 0.0249444
0.0616051 -0.00850377 0.020787
0.0253223 0.0151178 -0.0391173
-0.0243775 -0.0124722 0.00736993
0.0466762 -0.0684081 -0.00907068
0.0258892 -0.0353379 -0.00434637
-0.0141729 0.020787 -0.00888171
-0.0270231 0.00245664 0.0362827
Vibration 15
0.00302356 -0.00680301 0.0194642
0.00321253 -0.000377945 -0.0149288
-0.00321253 0.00359048 -0.0376055
-0.00548021 0.00264562 -0.0179524
-0.00264562 -0.00245664 0.0020787
0.00170075 -0.00642507 0.0113384
-0.00529123 -0.00642507 0.0134171
0 -0.0134171 -0.00736993
-0.00264562 -0.0251334 -0.0366607
-0.00340151 -0.00585815 0.0400622
-0.0149288 0.00831479 0.0472432
-0.0147399 0.0103935 0.0326923
-0.0020787 -0.0075589 0.00944863
-0.00793685 -0.0154958 0.0160627
-0.00718096 -0.0149288 0.0304246
0.0236216 -0.0162516 -0.0364717
-0.00359048 0.020598 -0.0436527
-0.0232436 0.0326923 -0.0313695
-0.0245664 0.0289128 -0.00793685
-0.00377945 0.0119053 0.0020787
0.0153068 0.0262672 -0.00812582
0.0143619 0.0298577 -0.0315584
-0.000188973 -0.0336371 0.0302356
-0.0370386 -0.0111494 -0.0198421
0.00529123 -0.00359048 0.00359048
0.0041574 -0.00188973 0.00472431
0.00434637 -0.000944863 0.00510226
0.00510226 -0.00718096 0.00529123
0.00925966 -0.00113384 -0.00170075
0.000566918 0.0141729 0.0096376