[Molden Format]
[FREQ]
-98.7
-21.8
-11.9
14.0
24.2
32.5
39.7
44.2
46.8
50.5
58.5
72.2
82.0
88.2
109.9
114.3
124.8
127.7
141.3
146.2
155.8
171.8
183.0
190.3
222.6
236.7
251.7
261.6
274.6
282.1
286.5
325.2
328.8
346.0
358.3
359.9
363.7
378.7
395.4
411.3
429.4
476.8
483.9
496.1
522.6
533.7
539.4
568.6
585.3
597.6
601.9
610.0
612.3
615.3
645.6
649.2
660.7
675.2
696.9
704.4
714.9
751.3
758.1
795.6
807.4
850.2
862.7
872.0
877.6
883.3
887.9
890.7
901.6
942.7
963.7
979.1
993.5
1003.9
1007.5
1010.8
1012.9
1019.0
1022.0
1032.9
1034.2
1070.5
1079.2
1083.6
1087.7
1125.2
1132.8
1149.1
1169.7
1177.6
1180.2
1185.9
1192.9
1230.8
1243.3
1251.9
1263.2
1266.6
1271.6
1282.1
1286.0
1289.9
1293.9
1300.7
1322.6
1326.4
1328.6
1342.1
1349.5
1350.2
1359.4
1364.4
1367.8
1380.7
1392.5
1403.8
1425.2
1455.7
1465.3
1485.9
1497.7
1521.2
1525.0
1546.4
1565.9
1575.0
1593.9
1600.4
1647.6
1694.0
1698.4
1698.8
1705.3
1727.3
1745.8
1751.1
1805.2
1932.6
2284.7
2452.1
2600.6
2650.6
2654.1
2663.1
2674.1
2739.6
2741.1
2742.2
2743.9
2744.6
2745.1
2746.8
2747.5
2760.0
2763.2
2763.9
2766.7
2767.1
2771.6
2778.7
2784.9
       
[FR-COORD]
C -2.52581 -2.68492 -0.885715
C 0.121887 -2.68492 -0.885715
C 1.44337 -0.417629 -0.885715
N 0.188595 1.84947 -0.867762
C -2.41167 1.92771 -0.827511
C -3.81044 -0.368119 -0.843385
N -3.70292 4.1797 -0.904045
C -6.48686 -0.239617 -0.879856
N -8.67063 -0.115084 -0.922753
C -3.87073 -5.09621 -0.931635
C -3.31174 -6.86745 -2.82533
C -4.55159 -9.16876 -2.88523
C -6.36214 -9.69959 -1.01063
C -6.93794 -7.96047 0.888549
C -5.68222 -5.64952 0.906502
O -7.41661 -12.0153 -1.27897
C 4.21825 -0.317285 -0.808992
C 5.41671 -0.563894 1.53219
C 8.02586 -0.330324 1.68261
C 9.44447 0.132848 -0.500399
C 8.2375 0.325222 -2.84045
C 5.61986 0.117163 -2.99843
C 12.2314 0.466762 -0.296309
C -9.31295 -12.7207 0.490006
C -3.07534 6.3765 0.0100155
C 0.843385 3.19458 4.14379
C 2.59535 4.77269 3.27849
C 2.88372 5.46906 0.64931
C 1.82396 4.30347 -1.42977
C 4.31273 5.89387 5.12135
C 6.05449 7.61578 4.41081
C 6.2531 8.41703 1.81168
C 4.71865 7.39866 0.0444086
O 1.80053 4.67613 -3.66777
O -0.631168 1.76708 4.92897
O -4.67065 8.25867 -0.456369
H 1.16369 -4.46618 -0.876077
H -1.45414 7.08137 1.11777
H -1.9107 -6.41543 -4.27154
H -4.15834 -10.5649 -4.34146
H -8.34068 -8.37111 2.32795
H -6.11496 -4.26965 2.38143
H 4.30782 -0.878723 3.24088
H 8.96543 -0.456936 3.50582
H 9.33109 0.668774 -4.54611
H 4.66309 0.339395 -4.8137
H 12.6863 2.4111 0.30349
H 13.222 0.138517 -2.09382
H 13.0735 -0.810881 1.10303
H -9.83262 -14.6235 -0.164784
H -10.9402 -11.4476 0.373032
H -8.54232 -12.801 2.40505
H 4.14568 5.26251 7.06436
H 7.36313 8.43763 5.76253
H 7.66152 9.82109 1.34208
H 4.85395 7.96727 -1.93791
H -6.21191 7.73918 -1.45263

[FR-NORM-COORD]
Vibration 1
0.0117163 -0.00831479 -0.00132281
0.0117163 -0.00264562 -0.0226767
0.0075589 -0.000377945 -0.0162516
0.00453534 -0.00170075 -0.0168186
0.00491329 -0.00736993 -0.00302356
0.00888171 -0.0120942 0.0292908
0.00359048 -0.00793685 -0.0192752
0.0075589 -0.0160627 0.126801
0.00151178 -0.0788016 0.249066
0.00944863 -0.00585815 -0.00642507
0.00302356 0.000377945 -0.013795
-0.00736993 0.00642507 -0.0241885
-0.0122832 0.00774788 -0.0287238
-0.00680301 0.00226767 -0.0219208
0.00585815 -0.00548021 -0.00944863
-0.0226767 0.013795 -0.0376055
0.00699199 0.00302356 -0.00396842
-0.00585815 0.0075589 0.00340151
-0.00680301 0.00680301 0.0170075
0.00510226 0.00151178 0.0236216
0.0177634 -0.000944863 0.0170075
0.0185193 -0.000188973 0.00302356
0.00453534 -0.00151178 0.0376055
-0.0289128 0.0185193 -0.0423299
0.0041574 -0.00151178 -0.034393
-0.0143619 0.0158737 -0.0154958
-0.00944863 0.0117163 -0.0130391
0.000188973 0.00396842 -0.013984
0.0062361 0.000188973 -0.0153068
-0.0151178 0.0145509 -0.00944863
-0.0109604 0.0113384 -0.00736993
-0.000944863 0.0041574 -0.00888171
0.00472431 0.00075589 -0.0119053
0.0147399 -0.00359048 -0.0156847
-0.0217318 0.0215429 -0.0190862
0.0100155 -0.000944863 -0.0525344
0.0153068 -0.00075589 -0.0379835
0.00226767 0.0041574 -0.034771
0.00585815 0.000566918 -0.0109604
-0.0120942 0.0102045 -0.0291018
-0.0119053 0.00377945 -0.0262672
0.0130391 -0.0119053 -0.000944863
-0.0153068 0.0111494 -0.0020787
-0.0164406 0.00982658 0.0222988
0.0270231 -0.00396842 0.0222988
0.0281569 -0.00264562 -0.00226767
0.00396842 -0.00113384 0.0362827
0.0134171 -0.00642507 0.0434637
-0.00453534 0 0.0445975
-0.0366607 0.0222988 -0.0472432
-0.0228657 0.0262672 -0.0421409
-0.0325033 0.0103935 -0.041196
-0.0228657 0.0196532 -0.00850377
-0.0151178 0.013606 -0.00472431
0.00188973 0.00170075 -0.0075589
0.0126612 -0.00434637 -0.0126612
0.0103935 -0.00529123 -0.0504557
Vibration 2
0.000188973 0.000377945 0.00340151
0.000188973 0.0062361 0.0062361
-0.0041574 0.00888171 0.00434637
-0.00869274 0.0062361 0.000377945
-0.00888171 0.000566918 -0.00302356
-0.00453534 -0.00226767 -0.000566918
-0.0143619 -0.00245664 -0.00736993
-0.00472431 -0.00548021 -0.0020787
-0.00491329 -0.00907068 -0.00283459
0.00510226 -0.00226767 0.00359048
0.0126612 -0.00321253 0.00661404
0.0168186 -0.00548021 0.00585815
0.0132281 -0.00680301 0.0020787
0.00566918 -0.00585815 -0.000944863
0.00170075 -0.00359048 -0.000188973
0.0181414 -0.00888171 0.00188973
-0.00434637 0.0128501 0.00359048
-0.00264562 0.0130391 0.00264562
-0.00283459 0.0171965 0.00132281
-0.00491329 0.0219208 0.00113384
-0.00642507 0.020787 0.00170075
-0.00604712 0.0160627 0.00302356
-0.00566918 0.0291018 0.000188973
0.013795 -0.00982658 -0.00302356
-0.0143619 0.00283459 -0.0198421
-0.0425188 0.0451645 0.00699199
0.00774788 -0.0134171 0.00264562
0.00472431 -0.0062361 0.00396842
-0.013795 0.0109604 0.0041574
0.0633058 -0.0816362 -0.00793685
0.0901399 -0.109604 -0.0102045
0.0655735 -0.0744552 -0.00151178
0.0241885 -0.0239995 0.00529123
-0.034582 0.0291018 0.00736993
-0.107525 0.112817 0.00774788
-0.020409 -0.00245664 -0.0196532
0.00377945 0.00850377 0.00869274
-0.0103935 0.0107714 -0.0313695
0.0153068 -0.0020787 0.00944863
0.0228657 -0.00604712 0.00812582
0.00302356 -0.00699199 -0.00396842
-0.00434637 -0.00302356 -0.00264562
-0.00075589 0.0107714 0.00302356
-0.00151178 0.0175745 0.00075589
-0.00774788 0.0238105 0.00151178
-0.00718096 0.0145509 0.00340151
-0.0107714 0.0308025 -0.00170075
-0.00529123 0.0300466 0.000188973
-0.00188973 0.0326923 0.00113384
0.0187083 -0.0113384 -0.00245664
0.0120942 -0.0124722 -0.0096376
0.00793685 -0.0062361 -0.000566918
0.0799354 -0.10677 -0.0147399
0.130202 -0.158926 -0.0190862
0.0812582 -0.0901399 -0.000566918
0.00548021 0.00113384 0.0115273
-0.0247554 -0.0102045 -0.00907068
Vibration 3
-0.000566918 0.00982658 -0.0243775
-0.000566918 0.00718096 -0.0338261
0.00170075 0.00566918 -0.0294797
0.00377945 0.00680301 -0.0247554
0.00396842 0.0096376 -0.0238105
0.00170075 0.0109604 -0.0200311
0.00736993 0.0113384 -0.0257003
0.00151178 0.0128501 0.00491329
0.00132281 0.0171965 0.0241885
-0.000944863 0.0096376 -0.0113384
-0.0128501 0.00510226 -0.0105825
-0.00812582 0.0020787 0.00680301
0.00888171 0.00359048 0.0236216
0.0192752 0.00907068 0.0217318
0.0141729 0.0119053 0.0041574
0.013795 -0.000566918 0.0410071
0.00170075 0.00264562 -0.0239995
-0.00434637 -0.00491329 -0.0215429
-0.00453534 -0.00888171 -0.0143619
0.00170075 -0.00548021 -0.00982658
0.00774788 0.00245664 -0.0120942
0.0075589 0.00661404 -0.0192752
0.00170075 -0.0109604 -0.00188973
0.034582 -0.0020787 0.0627389
0.00340151 0.00736993 -0.013795
-0.027779 -0.0255113 -0.0132281
-0.0213539 -0.020976 0.00793685
-0.00453534 -0.00510226 0.013795
0.00831479 0.00774788 -0.000566918
-0.0330702 -0.0325033 0.0257003
-0.0279679 -0.0285349 0.0472432
-0.0109604 -0.0134171 0.0532903
0.000377945 -0.00264562 0.0372276
0.0247554 0.0221098 0.00170075
-0.034393 -0.0317474 -0.0370386
0.0096376 0.0113384 -0.0194642
-0.00226767 0.00604712 -0.0402512
-0.0041574 0.000944863 0.00132281
-0.0255113 0.00377945 -0.0232436
-0.0166296 -0.00170075 0.00812582
0.0311805 0.0107714 0.0340151
0.0226767 0.0158737 0.00302356
-0.00907068 -0.0075589 -0.0251334
-0.00925966 -0.0149288 -0.0122832
0.0122832 0.00529123 -0.00850377
0.0124722 0.0130391 -0.020976
0.00359048 -0.0145509 0.00850377
0.00529123 -0.00396842 -0.00113384
-0.00377945 -0.0190862 -0.00604712
0.0366607 -0.00699199 0.075589
0.027779 -0.00982658 0.0736993
0.0540462 0.00925966 0.0555579
-0.0457314 -0.0442196 0.020787
-0.0364717 -0.0370386 0.0606602
-0.00736993 -0.0111494 0.0706758
0.013795 0.00888171 0.041385
0.0164406 0.0171965 -0.0330702
Vibration 4
-0.00661404 0.00302356 -0.0119053
-0.00661404 0.00264562 -0.013984
-0.00585815 0.00226767 -0.0115273
-0.00566918 0.00245664 -0.0115273
-0.00566918 0.00283459 -0.00944863
-0.0062361 0.00340151 -0.00907068
-0.00548021 0.00321253 -0.00359048
-0.0062361 0.00377945 0.000566918
-0.00642507 0.00548021 0.00793685
-0.0062361 0.00283459 -0.00812582
-0.0105825 0.00188973 -0.00850377
-0.0075589 0.000188973 -0.00226767
-0.000188973 -0.00075589 0.00472431
0.00302356 0.00075589 0.00434637
0 0.00245664 -0.0020787
0.00302356 -0.00302356 0.0113384
-0.00642507 0.00170075 -0.000188973
-0.0175745 -0.0576366 -0.000566918
-0.0192752 -0.0521564 0.0194642
-0.0096376 0.0119053 0.0393063
0.0020787 0.0672742 0.0376055
0.00377945 0.062361 0.0183303
-0.0126612 0.0224877 0.061983
0.0126612 -0.00529123 0.020598
-0.00170075 0.00188973 -0.00264562
0.0294797 -0.0217318 -0.0102045
0.0202201 -0.0141729 -0.0151178
0.00132281 -0.00170075 -0.013795
-0.00850377 0.00377945 -0.0115273
0.0311805 -0.0200311 -0.0215429
0.0243775 -0.0149288 -0.0255113
0.00510226 -0.00226767 -0.0232436
-0.00604712 0.00434637 -0.0171965
-0.020409 0.0115273 -0.0103935
0.0428968 -0.0330702 -0.00566918
-0.00226767 0.00321253 0.00510226
-0.00699199 0.00226767 -0.0164406
0.00245664 -0.000566918 -0.00699199
-0.0158737 0.00245664 -0.013606
-0.0105825 -0.00075589 -0.00226767
0.00812582 0.000377945 0.00925966
0.00283459 0.00340151 -0.0020787
-0.0255113 -0.10847 -0.0151178
-0.0283459 -0.0986437 0.020787
0.0102045 0.115651 0.0525344
0.0124722 0.106203 0.0187083
-0.0262672 0.0249444 0.0648176
0.00226767 0.0264562 0.0693529
-0.0171965 0.0272121 0.068786
0.0147399 -0.0075589 0.0257003
0.00888171 -0.0096376 0.0258892
0.0211649 -0.000566918 0.0173855
0.0451645 -0.0292908 -0.0232436
0.0328812 -0.0198421 -0.0308025
-0.000188973 0.00188973 -0.0262672
-0.0213539 0.0147399 -0.0153068
-0.00548021 0.00529123 0.00888171
Vibration 5
0.0132281 -0.0120942 0.00925966
0.0132281 -0.00944863 0.00850377
0.0107714 -0.00793685 0.000944863
0.00812582 -0.00925966 -0.0020787
0.00812582 -0.0115273 -0.00340151
0.0107714 -0.0130391 0.000944863
0.00642507 -0.0128501 -0.0111494
0.0107714 -0.0145509 -0.00907068
0.0107714 -0.0177634 -0.0162516
0.0103935 -0.0105825 0.0154958
0.0120942 -0.0198421 0.0247554
-0.00283459 -0.0119053 0.0230547
-0.0198421 0.00566918 0.0115273
-0.0168186 0.0124722 0.0062361
-0.00132281 0.00377945 0.00850377
-0.0391173 0.0151178 0.00680301
0.0107714 0.000377945 -0.00529123
0.0179524 -0.00566918 -0.00982658
0.0164406 0.0160627 -0.013984
0.0075589 0.0436527 -0.013795
0.00132281 0.0442196 -0.0105825
0.00283459 0.0226767 -0.0062361
0.0041574 0.0746442 -0.0177634
-0.068975 0.0408181 -0.0147399
0.00188973 -0.0103935 -0.0141729
-0.000377945 -0.0198421 0
-0.00113384 -0.0156847 0.00566918
-0.00075589 -0.00793685 0.0075589
0.00453534 -0.0062361 0.00377945
-0.00377945 -0.0187083 0.0096376
-0.00642507 -0.0134171 0.0156847
-0.00718096 -0.00472431 0.0181414
-0.00453534 -0.00226767 0.0143619
0.00680301 -0.000944863 0.00453534
0.00264562 -0.0266451 -0.00699199
0.00245664 -0.0124722 -0.0243775
0.0149288 -0.00831479 0.0128501
-0.00245664 -0.00718096 -0.00982658
0.0239995 -0.0330702 0.0323143
-0.00264562 -0.0183303 0.0292908
-0.0268341 0.0243775 0
0.00075589 0.00907068 0.0041574
0.0245664 -0.0257003 -0.00925966
0.0213539 0.0128501 -0.0166296
-0.00529123 0.0633058 -0.0109604
-0.00283459 0.0251334 -0.00302356
-0.0170075 0.0850377 -0.0353379
0.00642507 0.069164 -0.0154958
0.0192752 0.096754 -0.00661404
-0.0857936 0.0470542 -0.0194642
-0.0512116 0.0616051 -0.034393
-0.0920297 0.0319364 -0.00585815
-0.00321253 -0.0253223 0.0075589
-0.00812582 -0.0154958 0.0185193
-0.0100155 -0.000377945 0.0232436
-0.00472431 0.00396842 0.0162516
0.00661404 -0.0156847 -0.0289128
Vibration 6
0 -0.00566918 -0.00982658
-0.000188973 -0.0096376 -0.00982658
0.00188973 -0.0109604 -0.00302356
0.00377945 -0.0096376 0.000377945
0.00396842 -0.00642507 -0.000188973
0.00188973 -0.00491329 -0.00566918
0.00642507 -0.00491329 0.00529123
0.00188973 -0.00491329 -0.00736993
0.0020787 -0.00396842 -0.0096376
-0.00585815 -0.00283459 -0.0109604
-0.0462983 0.0154958 -0.0393063
-0.0536682 0.0192752 -0.0381725
-0.0177634 0.00472431 -0.00774788
0.0224877 -0.0122832 0.0202201
0.0272121 -0.0149288 0.0177634
-0.0283459 0.0096376 -0.0096376
0.00170075 -0.00831479 0.00226767
-0.00377945 0.0222988 0.00831479
-0.00566918 0.0410071 0.0141729
-0.0020787 0.0287238 0.013984
0.00434637 -0.00888171 0.00736993
0.0062361 -0.027401 0.00132281
-0.0062361 0.0597153 0.0190862
0.0166296 -0.00982658 0.0308025
0.00812582 -0.00812582 0.0120942
0.000566918 0.00188973 -0.00113384
0.00132281 0.000377945 -0.00245664
0.00736993 -0.00850377 -0.00396842
0.0075589 -0.0115273 -0.00245664
-0.00264562 0.00642507 -0.00226767
0.0020787 0.000566918 -0.00491329
0.0111494 -0.0113384 -0.00774788
0.0132281 -0.0153068 -0.00736993
0.0107714 -0.0177634 -0.00340151
-0.0020787 0.00566918 0.000944863
0.00925966 -0.00566918 0.0185193
-0.00283459 -0.0113384 -0.0147399
0.00869274 -0.0126612 0.013984
-0.0721875 0.0264562 -0.0610381
-0.0857936 0.0328812 -0.0600933
0.0493218 -0.0232436 0.0430858
0.0572587 -0.0264562 0.0372276
-0.00680301 0.0334482 0.00831479
-0.0109604 0.0674632 0.0187083
0.00774788 -0.0219208 0.00699199
0.0107714 -0.0548021 -0.0041574
-0.0279679 0.0854156 -0.0466762
0.00680301 0.00566918 0.0360938
-0.00188973 0.117919 0.0693529
-0.000377945 -0.00245664 0.0226767
0.013795 -0.00831479 0.0865495
0.0655735 -0.0313695 0.0100155
-0.00982658 0.0160627 0.000188973
-0.00075589 0.00472431 -0.00453534
0.0156847 -0.0168186 -0.0102045
0.0192752 -0.0236216 -0.00925966
0.00850377 -0.00132281 0.0173855
Vibration 7
-0.0103935 0.00396842 -0.0145509
-0.00982658 0.000566918 -0.0187083
-0.0062361 -0.0020787 -0.013795
-0.00264562 0.000188973 -0.00888171
-0.00226767 0.0041574 -0.00340151
-0.0062361 0.00661404 -0.00699199
0.00188973 0.00718096 0.0096376
-0.00604712 0.0117163 0.00718096
-0.00604712 0.0171965 0.0183303
-0.00944863 0.00359048 -0.0119053
0.0230547 -0.0168186 0.0162516
0.0328812 -0.0221098 0.0249444
0.00736993 -0.00718096 0.00472431
-0.0287238 0.0141729 -0.0258892
-0.0359048 0.0181414 -0.0334482
0.0230547 -0.0158737 0.0190862
-0.0062361 -0.00434637 -0.0075589
-0.0149288 0.0241885 0
-0.0162516 0.034771 0.00831479
-0.00907068 0.0158737 0.00925966
0.000188973 -0.0190862 0.00132281
0.00151178 -0.0291018 -0.00736993
-0.0122832 0.0374166 0.0166296
-0.00226767 -0.00113384 -0.0020787
0.00774788 -0.000188973 0.0236216
0.00661404 -0.0120942 -0.00982658
0.00283459 -0.00585815 -0.00661404
0.00831479 -0.00812582 -0.00661404
0.00302356 -0.00283459 -0.00736993
-0.00491329 -0.000188973 -0.00302356
0.00226767 -0.00680301 -0.0020787
0.0162516 -0.0181414 -0.0041574
0.0179524 -0.0175745 -0.0062361
0.00340151 -0.000944863 -0.00680301
0.0109604 -0.0183303 -0.0128501
0.0107714 0.00642507 0.0402512
-0.0120942 -0.00075589 -0.0219208
0.0115273 -0.0111494 0.0251334
0.0419519 -0.0287238 0.0306136
0.0599043 -0.0379835 0.0474321
-0.0498888 0.0270231 -0.0428968
-0.061983 0.0321253 -0.0538572
-0.020787 0.0398732 -0.000944863
-0.0239995 0.0597153 0.0141729
0.00680301 -0.0372276 0.00188973
0.00869274 -0.054991 -0.013984
-0.02759 0.0663294 -0.0646286
0.00226767 -0.0355268 0.0381725
-0.0153068 0.104313 0.0793685
0.020409 -0.0141729 0.0175745
-0.00793685 -0.0126612 -0.0487549
-0.034393 0.0321253 0.0122832
-0.0158737 0.00907068 -0.000944863
-0.00283459 -0.00359048 0.000944863
0.0239995 -0.0260782 -0.00434637
0.0270231 -0.0241885 -0.0075589
0.00774788 0.0168186 0.0396842
Vibration 8
0.0175745 -0.00736993 -0.0215429
0.0173855 -0.00151178 -0.0287238
0.0126612 0.00151178 -0.0238105
0.00812582 -0.000944863 -0.0158737
0.00831479 -0.00699199 -0.00642507
0.0132281 -0.00982658 -0.0151178
0.000566918 -0.0103935 0.0202201
0.0130391 -0.0126612 -0.0119053
0.0128501 -0.0143619 -0.00944863
0.0175745 -0.00736993 -0.0103935
0.00831479 -0.0173855 -0.00321253
-0.00264562 -0.0120942 0.00699199
-0.00453534 0.00396842 0.0096376
0.00888171 0.0120942 0.00642507
0.0200311 0.00566918 -0.00340151
-0.0211649 0.0107714 0.0168186
0.0122832 0.00472431 -0.0145509
0.000566918 -0.00283459 -0.00907068
0.000377945 -0.0111494 0.0041574
0.0124722 -0.0111494 0.0117163
0.0238105 0.00188973 0.00718096
0.0236216 0.0096376 -0.00604712
0.0134171 -0.0289128 0.02759
-0.0377945 0.0370386 0.00944863
-0.0102045 -0.020976 0.0529123
-0.0222988 0.0196532 -0.0154958
-0.0109604 0.00850377 -0.0130391
-0.00774788 0.00944863 -0.0124722
0.0020787 0.0041574 -0.0147399
-0.00548021 -0.000944863 -0.0124722
-0.00888171 0.00396842 -0.00944863
-0.0160627 0.0156847 -0.0062361
-0.0145509 0.0170075 -0.00831479
0.00944863 -0.00113384 -0.0153068
-0.0404401 0.0351489 -0.0213539
-0.0264562 -0.0247554 0.0933525
0.0211649 0.00075589 -0.0349599
-0.00850377 -0.0272121 0.0544241
0.00869274 -0.0294797 -0.00661404
-0.0105825 -0.0194642 0.0119053
0.0103935 0.0230547 0.0111494
0.0304246 0.0119053 -0.00604712
-0.00850377 -0.00377945 -0.0151178
-0.00850377 -0.0190862 0.00812582
0.0326923 0.00453534 0.0134171
0.0328812 0.0185193 -0.00982658
0.0215429 -0.0514005 0.0941084
0.0162516 0.0270231 0.0188973
0.00396842 -0.0808803 -0.013795
-0.0565028 0.041385 0.0117163
-0.0228657 0.05518 -0.00113384
-0.0476211 0.0326923 0.0132281
0.000566918 -0.0107714 -0.0153068
-0.00585815 -0.00151178 -0.00907068
-0.0217318 0.0226767 -0.00264562
-0.0183303 0.0236216 -0.00661404
-0.0292908 -0.0194642 0.0950532
Vibration 9
0.00869274 0.00075589 -0.00774788
0.00850377 0.00850377 -0.0096376
0.00226767 0.0124722 -0.00566918
-0.00377945 0.00869274 -0.00585815
-0.00434637 0.00075589 -0.00869274
0.00226767 -0.00302356 -0.00812582
-0.0134171 -0.00453534 -0.00907068
0.00188973 -0.00812582 -0.00548021
0.00151178 -0.0122832 -0.00283459
0.0119053 -0.00113384 -0.00170075
0.00264562 -0.00170075 -0.00340151
-0.00321253 0.00132281 -0.000377945
0.000377945 0.00548021 0.0041574
0.0132281 0.00434637 0.00925966
0.0190862 0.00113384 0.0062361
-0.0105825 0.0103935 0.00377945
0.0020787 0.0151178 0.00264562
-0.0075589 0.0559359 0.0122832
-0.00718096 0.0449755 0.0177634
0.00377945 -0.00850377 0.013606
0.0130391 -0.0453534 0.00585815
0.0120942 -0.0330702 0
0.00604712 -0.0289128 0.0179524
-0.0170075 0.0211649 0.00132281
-0.0188973 0.00132281 -0.0190862
0.0198421 -0.0211649 0.00188973
0.0158737 -0.0175745 -0.000566918
-0.0111494 0.0096376 0.00377945
-0.0179524 0.0192752 0.00170075
0.0360938 -0.0383614 -0.00680301
0.0234326 -0.0251334 -0.00585815
-0.0126612 0.0113384 0.00264562
-0.0289128 0.027779 0.00736993
-0.041574 0.0421409 0.00585815
0.0406291 -0.0428968 0.00132281
-0.0302356 -0.00793685 -0.0175745
0.013606 0.0115273 -0.0109604
-0.0168186 0.0120942 -0.0291018
-0.00075589 -0.00434637 -0.0075589
-0.0113384 0.00113384 -0.00245664
0.0187083 0.00604712 0.0149288
0.0285349 0.00075589 0.00925966
-0.0156847 0.0948642 0.0143619
-0.0149288 0.0772898 0.0241885
0.0213539 -0.0852266 0.00302356
0.020598 -0.0638727 -0.00774788
0.020598 -0.0302356 0.0105825
0.00774788 -0.0447865 0.0219208
-0.00812582 -0.0300466 0.0257003
-0.0311805 0.0266451 -0.00302356
-0.00736993 0.0338261 0.00340151
-0.0183303 0.0111494 0.00151178
0.062172 -0.0650066 -0.0132281
0.0396842 -0.041385 -0.0117163
-0.0255113 0.0251334 0.00472431
-0.055369 0.0544241 0.0132281
-0.0323143 -0.0188973 -0.00907068
Vibration 10
-0.00377945 -0.000377945 -0.00188973
-0.00359048 -0.000944863 -0.00188973
-0.00340151 -0.00132281 -0.000566918
-0.00321253 -0.000944863 0.000188973
-0.00302356 -0.000188973 -0.000188973
-0.00340151 0 -0.000944863
-0.00245664 0.000188973 0.00132281
-0.00340151 0.000377945 0.000188973
-0.00340151 0.000566918 0.00132281
-0.0041574 -0.000188973 -0.00188973
-0.00283459 -0.00113384 -0.000566918
-0.00188973 -0.00170075 0.000377945
-0.00226767 -0.00151178 0.000188973
-0.00434637 0 -0.00188973
-0.00529123 0.000566918 -0.00283459
-0.000377945 -0.00245664 0.00188973
-0.00340151 0.00151178 0
-0.00434637 0.020976 0.00321253
-0.00604712 0.0315584 0.00359048
-0.00529123 0.0222988 0.000944863
-0.00321253 0.000944863 -0.00075589
-0.00302356 -0.00982658 -0.00132281
-0.00585815 0.0202201 0.013795
0.00188973 -0.00359048 0.00377945
0.00321253 0.00113384 -0.00434637
0.00850377 -0.00907068 -0.00302356
0.0020787 -0.00075589 -0.00113384
0.0102045 -0.00888171 -0.00226767
0 -0.00245664 -0.00075589
-0.0102045 0.0117163 0.00264562
0.00132281 -0.000377945 0.000944863
0.0239995 -0.0236216 -0.00434637
0.0264562 -0.0255113 -0.00529123
-0.00604712 0.00075589 0
0.0149288 -0.0160627 -0.00340151
0.00302356 0.00170075 -0.00075589
-0.0041574 -0.00113384 -0.00245664
0.00812582 0.00132281 -0.0117163
-0.00245664 -0.00170075 -0.000377945
-0.000566918 -0.00264562 0.00151178
-0.00529123 0.000566918 -0.00245664
-0.00661404 0.00132281 -0.00396842
-0.00491329 0.0287238 0.00434637
-0.00529123 0.0478101 0.00434637
-0.00453534 -0.00774788 -0.00340151
-0.00170075 -0.0262672 -0.00396842
-0.0154958 -0.0993996 0.406669
-0.0292908 0.401 -0.0682191
0.0268341 -0.264751 -0.264751
0.00491329 -0.00529123 0.0062361
-0.000377945 -0.00661404 0.00302356
0.00302356 0 0.00340151
-0.0279679 0.0304246 0.00718096
-0.00699199 0.0075589 0.0041574
0.0376055 -0.0383614 -0.00718096
0.041196 -0.0398732 -0.00850377
-0.00132281 0.00170075 0.00604712
Vibration 11
0.00661404 0.00132281 0.00188973
0.00642507 0.0096376 0.00113384
-0.00075589 0.013984 -0.000188973
-0.00718096 0.0105825 -0.00113384
-0.00736993 0.0020787 -0.00151178
-0.000188973 -0.00264562 -0.00113384
-0.020787 -0.00529123 0.0075589
-0.000566918 -0.00907068 -0.00529123
-0.00075589 -0.0145509 -0.00812582
0.0120942 -0.00151178 0.00604712
0.00491329 0.00170075 0.00113384
0.00188973 0.00321253 0.00075589
0.00661404 0.00226767 0.00491329
0.0187083 -0.00340151 0.013606
0.0211649 -0.00472431 0.013984
-0.00226767 0.00680301 -0.000188973
-0.00075589 0.0158737 0.000188973
-0.00151178 0.00396842 -0.00075589
-0.000377945 -0.00812582 -0.000188973
0.00151178 -0.00850377 0.00113384
0.00132281 0.00869274 0.00226767
0.000566918 0.020598 0.00188973
0.00377945 -0.0260782 -0.00151178
-0.0141729 0.0154958 -0.00944863
-0.0149288 0.00548021 -0.0213539
0.00510226 -0.00661404 -0.0103935
-0.00718096 0.0128501 0
0.0196532 -0.00831479 -0.00245664
-0.00925966 0.0124722 0.000566918
-0.0423299 0.0449755 0.0130391
-0.0107714 0.0128501 0.0126612
0.05518 -0.0489439 -0.00113384
0.0650066 -0.0532903 -0.00718096
-0.0328812 0.0302356 0.00359048
0.0117163 -0.0183303 -0.0194642
-0.0436527 -0.0117163 0.00812582
0.0119053 0.0128501 0.00188973
0.00793685 0.0264562 -0.0682191
0.000377945 0.00321253 -0.00245664
-0.00510226 0.00604712 -0.00377945
0.0255113 -0.0062361 0.0194642
0.0294797 -0.00793685 0.0194642
-0.00264562 0.00321253 -0.00151178
-0.00113384 -0.0187083 -0.000566918
0.00283459 0.0109604 0.00377945
0.00113384 0.0315584 0.00302356
0.0185193 -0.00661404 -0.075778
0.00585815 -0.104691 0.013984
-0.0107714 0.0221098 0.0510226
-0.0291018 0.0232436 -0.0198421
-0.00264562 0.0304246 -0.00831479
-0.020409 -0.000188973 -0.00774788
-0.0935414 0.0939194 0.0245664
-0.0351489 0.0338261 0.0236216
0.0927855 -0.0880612 -0.00566918
0.107525 -0.0908958 -0.0153068
-0.0659514 -0.0325033 0.0527234
Vibration 12
0.00510226 -0.0103935 -0.0442196
0.00510226 -0.00718096 -0.0508336
0.00340151 -0.00585815 -0.0173855
0.00302356 -0.00585815 0.0124722
0.00264562 -0.00907068 -0.000944863
0.00510226 -0.0105825 -0.0200311
-0.00718096 -0.0153068 0.00736993
0.00472431 -0.0102045 -0.00680301
0.00434637 -0.0109604 0.00585815
-0.00075589 -0.00699199 -0.0432747
-0.000188973 -0.027779 -0.0230547
-0.00831479 -0.0245664 -0.00491329
-0.0173855 -0.000377945 -0.00699199
-0.0241885 0.0238105 -0.0309915
-0.0151178 0.0179524 -0.048566
-0.020787 -0.00188973 0.0196532
0.00340151 -0.0041574 -0.0132281
0.00075589 -0.00869274 -0.0124722
0.000377945 -0.00774788 -0.00907068
0.00264562 -0.000944863 -0.0062361
0.00529123 0.00453534 -0.00699199
0.00548021 0.00264562 -0.0105825
0.0020787 0.000944863 -0.0020787
0.00925966 0.00510226 0.05518
-0.00321253 -0.000188973 -0.0315584
0.0145509 0.0187083 0.0466762
0.0102045 0.0126612 0.0270231
0.00642507 -0.00245664 0.0232436
0.00075589 -0.00226767 0.0264562
0.0103935 0.0272121 0.0194642
0.00680301 0.0264562 0.00944863
0.00548021 0.00907068 0.00377945
0.00642507 -0.00453534 0.0113384
-0.00699199 0.00888171 0.02759
0.0198421 0.0338261 0.082959
-0.0285349 -0.0194642 -0.0228657
0.00718096 -0.00604712 -0.0774788
0.0143619 0.0272121 -0.0744552
0.00774788 -0.047999 -0.0215429
-0.00604712 -0.0408181 0.0113384
-0.0359048 0.0462983 -0.0359048
-0.0179524 0.0338261 -0.0638727
-0.000944863 -0.0130391 -0.0143619
-0.00151178 -0.0119053 -0.00831479
0.00680301 0.0102045 -0.00491329
0.00736993 0.00680301 -0.0109604
-0.000188973 0.0020787 -0.0041574
0.00529123 -0.000944863 0
0.000944863 0.00359048 0.00113384
0.020787 -0.0102045 0.0908958
-0.00529123 -0.0132281 0.0555579
0.0336371 0.0425188 0.0470542
0.0119053 0.0391173 0.0236216
0.00472431 0.0381725 0.0041574
0.0041574 0.00699199 -0.00604712
0.0062361 -0.0173855 0.0075589
-0.0462983 -0.0459203 0.0175745
Vibration 13
-0.00850377 0.000377945 -0.0234326
-0.00850377 0 -0.0330702
-0.00850377 -0.000377945 -0.0175745
-0.00793685 -0.00075589 0.00113384
-0.00831479 -0.000377945 -0.00321253
-0.00907068 0 -0.0117163
0.00566918 0.00736993 -0.0105825
-0.00907068 -0.00151178 -0.00566918
-0.00907068 -0.0020787 -0.00151178
-0.000377945 -0.00472431 -0.013984
-0.0143619 -0.00151178 -0.020976
0.00113384 -0.0105825 -0.00245664
0.027779 -0.020409 0.0202201
0.0459203 -0.0257003 0.0306136
0.0315584 -0.0175745 0.0134171
0.0389284 -0.027779 0.0364717
-0.00907068 -0.00132281 -0.013984
-0.0158737 -0.00226767 -0.0105825
-0.0164406 -0.00264562 -0.00340151
-0.0107714 -0.0020787 0.000377945
-0.00396842 -0.0020787 -0.00302356
-0.00377945 -0.00188973 -0.0105825
-0.0117163 -0.00075589 0.00925966
-0.0561249 0.0308025 -0.0421409
0.00642507 -0.00736993 0.0253223
0.00359048 0.0075589 0.0211649
-0.000188973 0.00529123 0.00944863
-0.00170075 -0.00245664 0.00774788
-0.00850377 0.00226767 0.00850377
-0.00113384 0.013984 0.00585815
-0.00075589 0.0111494 0.000188973
0.00226767 -0.00113384 -0.00321253
0.00151178 -0.00736993 0.000944863
-0.013606 0.00907068 0.0096376
0.00548021 0.0179524 0.0434637
0.0555579 0.0230547 -0.0185193
-0.00869274 -0.000188973 -0.0489439
-0.0228657 -0.0423299 0.089951
-0.0381725 0.00793685 -0.0410071
-0.00925966 -0.00850377 -0.00718096
0.0727545 -0.0370386 0.0532903
0.0455424 -0.0213539 0.020787
-0.020787 -0.00245664 -0.013795
-0.0213539 -0.00302356 -0.000944863
0.000944863 -0.0020787 0.000188973
0.00113384 -0.0020787 -0.0130391
-0.0145509 -0.000566918 0.0105825
-0.00566918 -0.000566918 0.0124722
-0.0156847 -0.000188973 0.0120942
-0.0791795 0.0419519 -0.0563138
-0.0173855 0.0735103 -0.115084
-0.138706 0.0177634 -0.00944863
-0.00264562 0.0226767 0.00869274
-0.00245664 0.0175745 -0.0020787
0.0041574 -0.00529123 -0.00907068
0.00302356 -0.0153068 -0.00132281
0.0854156 0.0578256 -0.0822031
Vibration 14
0.0100155 -0.00907068 0.000377945
0.00982658 -0.000377945 0.00226767
0.00359048 0.0041574 0.00453534
-0.00396842 -0.00113384 0.00604712
-0.00510226 -0.0100155 0.00321253
0.00170075 -0.0126612 0.00075589
0.0115273 -0.00075589 -0.0190862
0.00170075 -0.020976 -0.0075589
0.000944863 -0.034582 -0.0109604
0.0096376 -0.00888171 -0.00113384
0.0145509 -0.0168186 0.00793685
-0.000377945 -0.00907068 0.00245664
-0.0183303 0.00548021 -0.0107714
-0.0217318 0.0128501 -0.0185193
-0.00774788 0.00472431 -0.013795
-0.0368497 0.0149288 -0.0177634
0.00340151 0.0134171 0.00472431
0.00491329 0.013606 0.0041574
0.00566918 0.00680301 0.00188973
0.00548021 0.000188973 0.000566918
0.00283459 0.0109604 0.00264562
0.00226767 0.0170075 0.00472431
0.00850377 -0.0219208 -0.00453534
0.0241885 -0.0119053 0.0372276
-0.00812582 -0.0306136 0.0657625
-0.000944863 -0.000377945 -0.00472431
-0.00283459 0.00453534 0.000377945
-0.00302356 0.00188973 -0.000188973
-0.0251334 0.0158737 0.00302356
-0.0096376 0.013606 0.000566918
-0.00396842 0.00680301 -0.00340151
0.00812582 -0.00907068 -0.00699199
0.0062361 -0.00944863 -0.00529123
-0.0629279 0.0364717 0.00774788
-0.00718096 -0.00151178 -0.0175745
0.0735103 0.0185193 -0.0143619
0.0154958 0.00302356 0.00170075
-0.0746442 -0.0929745 0.201067
0.0298577 -0.0292908 0.0188973
0.00283459 -0.0143619 0.00831479
-0.0370386 0.0257003 -0.0296687
-0.0111494 0.0100155 -0.0194642
0.00548021 0.0168186 0.00510226
0.00661404 0.00453534 0.00132281
0.0020787 0.0113384 0.00226767
0.00132281 0.020976 0.00585815
0.0264562 -0.0217318 -0.0187083
0.00359048 -0.0434637 -0.00321253
-0.000944863 -0.0194642 0.00359048
0.0266451 -0.0160627 0.0476211
0.0062361 -0.0302356 0.0882502
0.0816362 -0.00812582 0.0143619
-0.0185193 0.0260782 0.00359048
-0.00869274 0.0132281 -0.00264562
0.0170075 -0.0194642 -0.0111494
0.0117163 -0.0177634 -0.00736993
0.140218 0.0791795 -0.147966
Vibration 15
0.00245664 0.00585815 0.0062361
0.00245664 0.0103935 0.00510226
-0.00340151 0.0130391 -0.0117163
-0.0107714 0.00907068 -0.0241885
-0.00944863 0.00529123 -0.0213539
-0.00453534 0.00245664 -0.00736993
-0.00680301 0.00736993 -0.0330702
-0.00472431 -0.00340151 -0.00283459
-0.00510226 -0.00831479 0.00113384
0.0096376 0.00226767 0.0151178
0.0185193 0.00132281 0.0183303
0.013984 0.00453534 0.0102045
0.00170075 0.00850377 -0.000377945
0.00321253 0.00377945 0.00453534
0.00661404 0.0020787 0.0115273
-0.0170075 0.0198421 -0.0213539
-0.00377945 0.0264562 -0.00888171
-0.00925966 0.0326923 -0.00529123
-0.00907068 0.0247554 -0.000566918
-0.00264562 0.00888171 0.000188973
0.000944863 0.0236216 -0.000566918
0.000377945 0.0325033 -0.00510226
0.00226767 -0.0328812 0.00113384
0.0130391 -0.00113384 0.00226767
-0.02759 -0.00982658 0.0221098
-0.0170075 -0.00377945 0.0190862
-0.0389284 0.00340151 -0.0128501