[Molden Format]
[FREQ]
9.3
18.3
21.6
28.9
31.4
41.9
53.1
60.0
73.2
86.3
94.1
103.9
108.4
129.0
136.7
150.1
161.9
176.4
181.7
194.1
209.6
227.0
231.4
235.9
259.3
268.9
277.8
289.0
300.8
307.5
325.4
328.2
351.9
357.0
363.3
370.2
417.1
442.2
464.3
477.2
485.6
498.0
511.9
517.0
523.6
525.1
551.4
565.9
596.2
609.4
618.2
634.0
643.8
647.4
669.8
700.8
711.1
720.4
727.2
749.4
761.6
786.0
824.6
837.0
842.7
854.4
883.0
884.2
895.1
903.5
926.1
934.6
967.3
970.5
982.8
996.7
1003.7
1008.9
1009.2
1015.5
1017.0
1034.1
1035.8
1037.3
1055.9
1074.3
1078.5
1083.0
1096.7
1120.9
1127.5
1143.4
1150.7
1180.1
1181.9
1186.4
1187.9
1198.3
1216.6
1238.4
1251.6
1254.2
1262.9
1269.0
1276.2
1279.1
1284.1
1285.8
1295.7
1305.2
1313.0
1320.9
1326.7
1336.9
1341.0
1342.6
1348.5
1356.3
1364.1
1378.2
1392.4
1398.8
1429.0
1478.9
1488.3
1497.8
1506.6
1519.4
1528.8
1553.2
1572.7
1590.3
1597.8
1600.7
1650.8
1679.7
1696.2
1700.1
1708.6
1709.1
1733.0
1748.6
1884.2
2432.4
2512.2
2653.0
2654.0
2666.0
2672.8
2716.9
2732.8
2744.0
2744.6
2745.1
2745.6
2746.8
2753.1
2755.2
2761.4
2764.8
2764.9
2769.5
2770.0
2779.1
2779.5
       
[FR-COORD]
C 0.254357 -2.17318 -1.44791
C 2.88845 -2.17318 -1.44791
C 4.19935 0.135871 -1.44791
N 2.97329 2.38483 -1.4978
C 0.438794 2.38937 -1.55921
C -1.04011 0.140974 -1.50876
N -0.880045 4.7126 -1.88443
C -3.70821 0.265318 -1.44205
N -5.89349 0.436338 -1.3521
C -1.13554 -4.56426 -1.35399
C -0.872298 -6.30545 -3.33196
C -2.1643 -8.5786 -3.26186
C -3.71841 -9.10413 -1.17069
C -4.00773 -7.38618 0.809181
C -2.7042 -5.10377 0.695986
O -4.84204 -11.4019 -1.33207
C 6.97233 0.243586 -1.38044
C 8.34919 -1.57717 -0.0489439
C 10.9748 -1.4704 -0.00396842
C 12.2496 0.456558 -1.2852
C 10.8712 2.28487 -2.60253
C 8.24601 2.18774 -2.64165
C 15.0615 0.593374 -1.22681
C -6.42431 -12.1532 0.703734
C -4.86586 6.57133 -0.0820141
C -6.13991 5.1238 1.79429
C -4.50794 4.01642 3.61183
C -1.97344 4.58145 2.85745
C -2.06264 5.847 0.349599
C -4.94088 2.60763 5.77727
C -2.85424 1.82831 7.20326
C -0.39552 2.44153 6.49744
C 0.0633058 3.84238 4.29667
O 0.111494 6.94266 -0.741151
O -8.69879 4.33144 1.48551
O -5.75327 7.84331 -1.7463
H 3.91778 -3.95368 -1.4343
H -8.51435 2.59214 0.488872
H 0.343363 -5.85418 -4.9371
H -2.00311 -9.95432 -4.77968
H -5.22301 -7.78869 2.40864
H -2.90923 -3.73391 2.22591
H 7.37295 -3.07307 0.976988
H 12.0374 -2.88939 1.03519
H 11.8526 3.79533 -3.59388
H 7.16244 3.63527 -3.64547
H 15.7031 2.0358 0.130769
H 15.8552 1.10681 -3.07723
H 15.9444 -1.1996 -0.668585
H -7.02336 -14.0509 0.109037
H -8.05817 -10.8969 0.87003
H -5.35851 -12.2554 2.47252
H -6.84364 2.14276 6.36857
H -3.17039 0.723954 8.91233
H 1.18769 1.82944 7.65169
H 1.98969 4.31235 3.72937
H -9.33638 5.43825 -0.0258892

[FR-NORM-COORD]
Vibration 1
-0.0062361 -0.0113384 -0.00075589
-0.0062361 -0.00888171 -0.00510226
-0.00831479 -0.00774788 -0.00302356
-0.0102045 -0.00888171 -0.0062361
-0.0103935 -0.0111494 -0.00283459
-0.00850377 -0.0122832 0.0075589
-0.0130391 -0.0143619 -0.0117163
-0.00793685 -0.013606 0.0294797
-0.00680301 -0.0115273 0.0521564
-0.00302356 -0.013606 -0.00812582
-0.00075589 -0.00472431 -0.0158737
0.00264562 -0.00680301 -0.0257003
0.00377945 -0.0183303 -0.027779
0.00151178 -0.027401 -0.0202201
-0.00188973 -0.0249444 -0.0103935
0.00736993 -0.0192752 -0.0379835
-0.00850377 -0.00548021 0.00340151
-0.0109604 -0.00585815 0.00566918
-0.0111494 -0.00340151 0.0141729
-0.00888171 -0.000566918 0.020598
-0.00661404 -0.000566918 0.0181414
-0.00642507 -0.00302356 0.0096376
-0.00925966 0.00226767 0.0304246
0.00566918 -0.0294797 -0.0428968
-0.00491329 -0.0020787 -0.00718096
0.00548021 0.0145509 0.0128501
0.0158737 0.0311805 0.013795
0.0115273 0.0255113 -0.00472431
-0.0020787 0.00340151 -0.0151178
0.0281569 0.0508336 0.0289128
0.0360938 0.0644397 0.0247554
0.0321253 0.0591484 0.0062361
0.0196532 0.0396842 -0.00869274
-0.00793685 -0.00472431 -0.0349599
0.00510226 0.00888171 0.0326923
-0.013984 -0.0183303 -0.0147399
-0.00453534 -0.00793685 -0.0096376
0.00132281 -0.00151178 0.0504557
-0.00170075 0.0041574 -0.0141729
0.00453534 0.000188973 -0.0319364
0.00245664 -0.0362827 -0.0219208
-0.00377945 -0.0319364 -0.00434637
-0.0126612 -0.00793685 0.000944863
-0.0130391 -0.00340151 0.0160627
-0.00491329 0.00151178 0.0230547
-0.00472431 -0.00302356 0.00774788
-0.0153068 -0.00170075 0.0374166
-0.00340151 0.00888171 0.034771
-0.00944863 0.00113384 0.02759
0.00642507 -0.0266451 -0.0525344
0.00529123 -0.0306136 -0.0377945
0.00453534 -0.0377945 -0.0427078
0.0315584 0.0555579 0.0432747
0.0457314 0.0797464 0.0364717
0.0385504 0.0706758 0.00321253
0.0162516 0.0359048 -0.0234326
-0.00283459 -0.00793685 0.0236216
Vibration 2
-0.00680301 0.00377945 -0.0179524
-0.00699199 0.00396842 -0.0160627
-0.00736993 0.00434637 -0.0154958
-0.00774788 0.00396842 -0.0222988
-0.0075589 0.00359048 -0.0247554
-0.00699199 0.00340151 -0.0226767
-0.00982658 0.00359048 -0.0198421
-0.00699199 0.00226767 -0.0190862
-0.00699199 0.00075589 -0.0160627
-0.00812582 0.00491329 -0.0096376
-0.0213539 0.00264562 -0.00907068
-0.0241885 0.00434637 0.000566918
-0.013795 0.00907068 0.00944863
-0.000377945 0.0115273 0.00944863
0.00245664 0.00925966 -0.000188973
-0.0188973 0.0109604 0.0179524
-0.00793685 0.00566918 -0.000188973
-0.0154958 0.00774788 0.0107714
-0.0160627 0.0111494 0.0308025
-0.00888171 0.0126612 0.0400622
-0.00113384 0.0096376 0.0279679
-0.00075589 0.00604712 0.00774788
-0.0096376 0.0171965 0.0638727
-0.00377945 0.0132281 0.0306136
-0.0020787 -0.00529123 0.00925966
0.0124722 -0.0171965 0.0102045
0.0255113 -0.0215429 -0.0041574
0.0196532 -0.00907068 -0.0151178
0.00170075 -0.000944863 -0.0105825
0.0427078 -0.0353379 -0.0096376
0.0536682 -0.0349599 -0.0251334
0.0472432 -0.020787 -0.034204
0.0300466 -0.0075589 -0.0294797
-0.00604712 0.00302356 -0.0215429
0.0115273 -0.0192752 0.0232436
-0.0151178 0.000944863 0.020976
-0.00680301 0.00396842 -0.0126612
0.00680301 -0.0128501 0.0111494
-0.0294797 -0.000944863 -0.0160627
-0.034582 0.00245664 0.00132281
0.00793685 0.0149288 0.0164406
0.0130391 0.0113384 -0.000566918
-0.0213539 0.00699199 0.0041574
-0.0221098 0.0132281 0.0398732
0.00434637 0.0105825 0.034771
0.00491329 0.00396842 -0.00132281
-0.0232436 0.0120942 0.075589
0.00510226 0.0266451 0.0727545
-0.0113384 0.0160627 0.0633058
-0.00888171 0.0128501 0.0366607
-0.00226767 0.013795 0.041385
0.00925966 0.0145509 0.0226767
0.047999 -0.0466762 -0.0020787
0.0668963 -0.0461093 -0.0298577
0.0559359 -0.0202201 -0.0457314
0.0253223 0.00302356 -0.0374166
-0.00075589 -0.0107714 0.034582
Vibration 3
-0.0113384 0.00793685 -0.0130391
-0.0115273 0.00321253 -0.013984
-0.00736993 0.00075589 -0.00604712
-0.00340151 0.00283459 -0.00075589
-0.00340151 0.00736993 -0.00170075
-0.0075589 0.00982658 -0.00661404
0.00113384 0.0105825 0.00245664
-0.00736993 0.0134171 -0.00396842
-0.00718096 0.0154958 -0.00340151
-0.0119053 0.00793685 -0.0145509
-0.0379835 0.0236216 -0.0317474
-0.0258892 0.0170075 -0.0253223
0.013606 -0.00529123 -0.00151178
0.034204 -0.0175745 0.0120942
0.020409 -0.0100155 0.00510226
0.0258892 -0.0119053 0.00472431
-0.00718096 -0.00604712 -0.00132281
-0.0145509 -0.0153068 -0.00604712
-0.0143619 -0.0234326 -0.00188973
-0.00680301 -0.0224877 0.00736993
0.00075589 -0.0128501 0.0128501
0.000377945 -0.00472431 0.00850377
-0.00642507 -0.0319364 0.0119053
0.1011 -0.0523454 0.048188
0.00377945 0.0164406 0.0020787
-0.00151178 0.0166296 -0.00151178
-0.00604712 0.00944863 -0.00188973
-0.00377945 0.00359048 0.00132281
0.00170075 0.00869274 0.00359048
-0.0119053 0.0075589 -0.00434637
-0.0154958 -0.000566918 -0.00359048
-0.0130391 -0.00661404 -0.00075589
-0.00718096 -0.00453534 0.00188973
0.00510226 0.00604712 0.00774788
-0.00302356 0.0232436 -0.00491329
0.00888171 0.0215429 0.00321253
-0.0149288 0.00113384 -0.0202201
-0.00661404 0.0226767 -0.00453534
-0.0663294 0.0398732 -0.048566
-0.0447865 0.02759 -0.0370386
0.0600933 -0.0325033 0.0281569
0.0362827 -0.0188973 0.0151178
-0.020598 -0.0162516 -0.0132281
-0.0202201 -0.0308025 -0.00585815
0.00680301 -0.0119053 0.020598
0.0062361 0.00226767 0.0126612
-0.00340151 -0.0449755 0.0243775
-0.00226767 -0.0198421 0.0170075
-0.0130391 -0.0394953 -0.00132281
0.11584 -0.0589595 0.0542351
0.0846597 -0.0812582 0.105447
0.156091 -0.0455424 0.0154958
-0.013984 0.0122832 -0.00661404
-0.0200311 -0.0020787 -0.00548021
-0.0158737 -0.0130391 -0.000377945
-0.00529123 -0.00907068 0.00434637
0.00170075 0.0247554 -0.00585815
Vibration 4
-0.00585815 0.00982658 0.00302356
-0.00585815 0.0105825 0.00869274
-0.00699199 0.0109604 0.00434637
-0.00529123 0.0109604 -0.00170075
-0.00585815 0.0102045 -0.00170075
-0.00548021 0.00982658 -0.00132281
-0.00680301 0.0102045 0.000377945
-0.00566918 0.0100155 -0.00472431
-0.00585815 0.0096376 -0.00774788
-0.0020787 0.0075589 -0.000377945
0.0215429 0.00151178 0.00774788
0.0319364 -0.0041574 0.00548021
0.0179524 -0.0041574 -0.00491329
-0.00774788 0.00245664 -0.0145509
-0.0173855 0.00831479 -0.0120942
0.0334482 -0.0119053 -0.0041574
-0.00661404 0.00453534 0.00472431
-0.0183303 0.0430858 0.069164
-0.0177634 0.0300466 0.0661404
-0.00680301 -0.0226767 -0.00245664
0.00377945 -0.0600933 -0.0653845
0.00283459 -0.0453534 -0.0612271
-0.00585815 -0.0393063 -0.00718096
0.0160627 -0.0100155 -0.0170075
-0.00510226 0.00642507 0.0096376
-0.00132281 0.00075589 0.00793685
0.0020787 -0.00245664 0.00283459
0.000566918 0.00264562 0.00113384
-0.0041574 0.00736993 0.00359048
0.00680301 -0.00888171 -0.000377945
0.0096376 -0.00982658 -0.00510226
0.00793685 -0.00396842 -0.00604712
0.00321253 0.00226767 -0.00302356
-0.00642507 0.00925966 0.00151178
-0.00170075 0.00113384 0.0102045
-0.00888171 0.0105825 0.0147399
-0.0041574 0.0115273 0.0158737
-0.00359048 0.00510226 0.00321253
0.0325033 0.00151178 0.0158737
0.0510226 -0.00907068 0.0119053
-0.0196532 0.00302356 -0.0234326
-0.0362827 0.0126612 -0.0185193
-0.0283459 0.0848487 0.120753
-0.0258892 0.0608492 0.116785
0.0122832 -0.100533 -0.118486
0.0111494 -0.0735103 -0.109604
0.0041574 -0.0391173 -0.0120942
-0.00359048 -0.0502667 -0.00907068
-0.0170075 -0.0434637 -0.00226767
0.0336371 -0.0168186 -0.0130391
0.00699199 -0.0185193 -0.041574
-0.00264562 0.00604712 -0.00491329
0.00831479 -0.0134171 0.00075589
0.0132281 -0.0151178 -0.00774788
0.0102045 -0.00453534 -0.00944863
0.00188973 0.00699199 -0.00396842
-0.00510226 0.00680301 0.0158737
Vibration 5
-0.0143619 0.0041574 -0.0096376
-0.013795 0.0020787 -0.0111494
-0.0103935 -0.000377945 -0.00793685
-0.00850377 0.00113384 -0.00585815
-0.00812582 0.00377945 -0.00642507
-0.0117163 0.00566918 -0.00793685
-0.0041574 0.00718096 -0.00226767
-0.0113384 0.0119053 -0.0062361
-0.0107714 0.0173855 -0.00529123
-0.00944863 0.00170075 -0.00699199
0.0408181 -0.0251334 0.0226767
0.0587705 -0.034771 0.0311805
0.0241885 -0.0179524 0.00982658
-0.0304246 0.0102045 -0.0226767
-0.0461093 0.0188973 -0.0306136
0.0536682 -0.0334482 0.0260782
-0.0105825 -0.00340151 -0.00434637
-0.0120942 -0.0245664 -0.0313695
-0.0120942 -0.0268341 -0.027779
-0.0100155 -0.00736993 0.00359048
-0.00812582 0.013984 0.0311805
-0.00793685 0.0154958 0.0268341
-0.0100155 -0.0096376 0.00793685
0.00396842 -0.00774788 -0.00302356
0.00566918 0.0173855 0.00925966
0.00453534 0.0156847 0.00736993
0.00453534 0.00604712 0.00151178
0.00491329 0.00151178 -0.000944863
0.00396842 0.0075589 0.0020787
0.00453534 0.000944863 -0.00188973
0.00491329 -0.00850377 -0.00736993
0.00529123 -0.0126612 -0.00944863
0.00529123 -0.00736993 -0.0062361
0.00453534 0.00283459 -0.000944863
0.00188973 0.0243775 0.00944863
0.0062361 0.0255113 0.0153068
-0.0164406 0.000566918 -0.0128501
-0.00548021 0.0266451 0.00453534
0.0670853 -0.0381725 0.0385504
0.0992106 -0.0555579 0.0542351
-0.0587705 0.0243775 -0.0406291
-0.0857936 0.0383614 -0.0532903
-0.0130391 -0.0400622 -0.0548021
-0.013795 -0.0440306 -0.0495108
-0.0062361 0.0291018 0.0561249
-0.00642507 0.0313695 0.0478101
-0.0103935 -0.0188973 0.0177634
-0.00812582 0.00170075 0.0117163
-0.0115273 -0.013795 -0.00283459
0.0391173 -0.0257003 0.0187083
-0.0126612 -0.0200311 -0.0746442
-0.0451645 0.0381725 0.0292908
0.00434637 0.0041574 0
0.00472431 -0.0130391 -0.0102045
0.00548021 -0.0200311 -0.013606
0.00566918 -0.0107714 -0.00774788
0.00264562 0.0304246 0.0134171
Vibration 6
-0.0020787 -0.0143619 -0.00604712
-0.00151178 -0.0162516 -0.0173855
-0.000566918 -0.0170075 -0.0215429
0 -0.0168186 -0.0175745
0 -0.0149288 -0.00529123
-0.00132281 -0.013606 0.00283459
0.00718096 -0.0100155 0.000566918
-0.000944863 -0.00812582 0.0221098
0.000566918 0.000188973 0.0406291
-0.00264562 -0.013984 -0.00283459
-0.00604712 -0.0151178 -0.00245664
-0.00736993 -0.0141729 -0.000566918
-0.00548021 -0.0128501 0.00132281
-0.00170075 -0.0122832 0.00132281
-0.000566918 -0.0130391 -0.00075589
-0.0075589 -0.0120942 0.00302356
-0.00075589 -0.00888171 -0.0236216
0.00510226 0.0141729 0.00113384
0.0041574 0.0379835 0.0183303
-0.00377945 0.0374166 0.00944863
-0.0102045 0.00869274 -0.0238105
-0.00888171 -0.0141729 -0.0400622
-0.00585815 0.0693529 0.0370386
-0.00888171 -0.00888171 0.00302356
0.0236216 0.020787 0.00321253
0.00907068 0.034582 0.00377945
-0.00113384 0.0151178 0.00132281
0.00472431 -0.0122832 0.00075589
0.0166296 -0.0062361 0.00340151
-0.0170075 0.0171965 -0.000566918
-0.0257003 -0.0113384 -0.00377945
-0.0188973 -0.0402512 -0.00510226
-0.00340151 -0.0408181 -0.00226767
0.0230547 -0.0185193 0.0041574
0.00377945 0.0536682 0.00151178
0.0374166 0.0287238 0.0020787
-0.00170075 -0.0162516 -0.0213539
-0.00793685 0.0427078 0.0198421
-0.00774788 -0.0162516 -0.0041574
-0.0100155 -0.0145509 -0.000377945
0 -0.0111494 0.00302356
0.00188973 -0.0126612 -0.00075589
0.0103935 0.0156847 0.00812582
0.00925966 0.0580146 0.0402512
-0.0164406 0.00548021 -0.0349599
-0.0143619 -0.034582 -0.0634948
-0.0364717 0.0816362 0.0387394
0.0075589 0.0721875 0.0436527
0.00869274 0.0814472 0.0525344
-0.0122832 -0.00793685 0.00340151
-0.00680301 -0.00604712 0.00264562
-0.00925966 -0.0102045 0.00302356
-0.0224877 0.0400622 -0.000188973
-0.0377945 -0.0105825 -0.00548021
-0.0255113 -0.0627389 -0.00774788
0.0020787 -0.0629279 -0.00170075
0.0185193 0.0445975 -0.0115273
Vibration 7
-0.00812582 -0.00245664 0.0427078
-0.00793685 -0.00283459 0.0589595
-0.00736993 -0.00321253 0.0404401
-0.00831479 -0.0041574 0.0168186
-0.0075589 -0.00396842 0.00736993
-0.00831479 -0.00321253 0.0188973
-0.00283459 -0.00264562 -0.0109604
-0.00850377 -0.00188973 0.00529123
-0.00869274 0.00075589 -0.00491329
-0.00699199 -0.00377945 0.0338261
-0.00680301 0.0128501 0.0187083
-0.00434637 0.0113384 0
-0.00226767 -0.00774788 -0.00302356
-0.00151178 -0.0253223 0.0120942
-0.00434637 -0.0221098 0.0304246
-0.00113384 -0.00680301 -0.0245664
-0.0075589 0.0020787 0.0315584
0.00604712 0.00226767 0.0175745
0.00642507 0.00585815 -0.00491329
-0.00680301 0.00944863 -0.0124722
-0.020409 0.0126612 0.00604712
-0.0202201 0.00869274 0.0279679
-0.0062361 0.0102045 -0.0432747
0.00396842 -0.0304246 -0.0296687
0.00888171 0.0198421 -0.00434637
0.0102045 0.0119053 -0.00925966
0.0117163 0.000944863 -0.0170075
0.0109604 0.00850377 -0.013984
0.0075589 0.0124722 -0.0120942
0.0151178 -0.0183303 -0.0289128
0.0173855 -0.0291018 -0.0377945
0.0160627 -0.0185193 -0.0326923
0.0128501 0.00132281 -0.020787
0.00718096 0 -0.0232436
0.0075589 0.0200311 -0.00604712
0.00850377 0.0313695 0.00472431
-0.00888171 -0.00321253 0.0805023
0 0.0190862 -0.00566918
-0.00812582 0.02759 0.0219208
-0.00453534 0.0243775 -0.0119053
0.000566918 -0.0404401 0.00982658
-0.00529123 -0.034771 0.041196
0.0170075 -0.00113384 0.0226767
0.0171965 0.00491329 -0.0171965
-0.0308025 0.0171965 0.00245664
-0.0306136 0.0102045 0.0408181
0.00831479 0.0183303 -0.0587705
-0.0266451 -0.000188973 -0.054991
0.000377945 0.013795 -0.0425188
0.00151178 -0.0230547 -0.0506447
0.00472431 -0.0319364 -0.00982658
0.00888171 -0.0515895 -0.0338261
0.0162516 -0.0262672 -0.0315584
0.0196532 -0.0462983 -0.048377
0.0175745 -0.0262672 -0.0387394
0.0119053 0.00925966 -0.0179524
0.00888171 0.0217318 -0.00548021
Vibration 8
0.00982658 0.00812582 0.000944863
0.00925966 0.0149288 -0.0128501
0.00377945 0.0183303 -0.0132281
-0.00151178 0.0151178 -0.0166296
-0.00245664 0.00812582 -0.00718096
0.00340151 0.00472431 0.0096376
-0.0102045 0.00377945 -0.0102045
0.00340151 -0.00434637 0.041385
0.0041574 -0.0100155 0.0702978
0.0185193 0.00359048 0.00793685
0.00774788 0.0102045 0.00075589
0.00982658 0.00925966 0.00170075
0.0219208 0.00264562 0.00925966
0.0391173 -0.00718096 0.0202201
0.0374166 -0.0062361 0.0196532
0.0181414 0.00491329 0.00585815
0.00377945 0.013984 -0.00396842
-0.00944863 0.00170075 -0.00585815
-0.00925966 -0.0170075 -0.00226767
0.00548021 -0.0221098 0.00453534
0.0190862 -0.0062361 0.0122832
0.0179524 0.0117163 0.00793685
0.00661404 -0.0468652 0.00377945
-0.0306136 0.0296687 -0.0228657
-0.0153068 0.00283459 -0.00604712
-0.0151178 0.0200311 0.0075589
-0.0117163 0.00831479 -0.00226767
-0.0122832 -0.00491329 -0.0128501
-0.0153068 -0.000188973 -0.0107714
-0.0105825 0.000944863 -0.00699199
-0.00869274 -0.0239995 -0.0236216
-0.00812582 -0.0379835 -0.0340151
-0.0100155 -0.0272121 -0.027401
-0.0175745 0.0062361 -0.00888171
-0.0171965 0.0241885 0.0181414
-0.0171965 -0.00774788 -0.0132281
0.0132281 0.0171965 -0.020598
-0.0243775 0.0075589 0.0472432
-0.00377945 0.0170075 -0.00604712
0.000188973 0.0145509 -0.00396842
0.0536682 -0.0151178 0.0291018
0.0496998 -0.0126612 0.0270231
-0.020598 0.00548021 -0.0107714
-0.0202201 -0.027779 -0.00566918
0.0306136 -0.00850377 0.0202201
0.0287238 0.0226767 0.0122832
0.0202201 -0.0574477 0.00850377
0.0102045 -0.0476211 0.00510226
-0.00888171 -0.0568808 -0.00302356
-0.0576366 0.0430858 -0.0387394
-0.00925966 0.0602823 -0.0447865
-0.0606602 0.00340151 -0.0062361
-0.0109604 0.0124722 0.000944863
-0.00736993 -0.0325033 -0.0289128
-0.0062361 -0.0572587 -0.0468652
-0.0096376 -0.0366607 -0.0340151
-0.0128501 0.00170075 -0.00075589
Vibration 9
0.00925966 0.00132281 0.0119053
0.00925966 0.00188973 0.00982658
0.00888171 0.00226767 0.00548021
0.00850377 0.0020787 -0.00113384
0.00831479 0.00132281 0.00245664
0.00907068 0.00151178 0.0143619
0.00396842 -0.00188973 -0.00548021
0.00925966 -0.000944863 0.0325033
0.00982658 -0.00226767 0.0504557
0.00151178 0.00604712 0.00566918
0.027401 -0.00642507 0.0202201
0.0100155 0.00283459 0.00718096
-0.0311805 0.0234326 -0.0185193
-0.0600933 0.0372276 -0.034582
-0.0430858 0.027779 -0.0222988
-0.0510226 0.0340151 -0.0309915
0.00925966 0.00302356 0.00529123
0.0105825 0.00264562 0.00359048
0.0107714 0.00113384 0
0.0103935 0.000188973 -0.00170075
0.00925966 0.0020787 0.0020787
0.00907068 0.00340151 0.00548021
0.0107714 -0.00340151 -0.00812582
0.0640617 -0.0264562 0.0362827
-0.00888171 -0.013984 -0.0113384
-0.00736993 0.00831479 0.00718096
-0.00377945 0.00510226 0.0020787
-0.00491329 -0.00661404 -0.00888171
-0.0075589 -0.00680301 -0.00925966
-0.00113384 0.00377945 0.00170075
0.00151178 -0.013984 -0.0119053
0.00151178 -0.027401 -0.0236216
-0.00188973 -0.0222988 -0.020976
-0.00869274 0.0020787 -0.00340151
-0.00850377 0.00869274 0.0166296
-0.013606 -0.0383614 -0.02759
0.0096376 0.00226767 0.0111494
-0.0130391 -0.00340151 0.0377945
0.061794 -0.0238105 0.041196
0.0296687 -0.0062361 0.0175745
-0.0978878 0.0559359 -0.0585815
-0.0650066 0.0376055 -0.0340151
0.0115273 0.00283459 0.00472431
0.0113384 0.000188973 -0.00188973
0.00850377 0.00226767 0.00170075
0.00869274 0.00453534 0.0075589
0.0158737 -0.0096376 -0.00396842
0.00680301 0.00302356 -0.00812582
0.00982658 -0.00661404 -0.0175745
0.100344 -0.0440306 0.0555579
0.0304246 -0.0799354 0.110171
0.142863 0.00188973 -0.0096376
-0.00113384 0.0147399 0.0107714
0.00377945 -0.0175745 -0.013795
0.00396842 -0.0419519 -0.034771
-0.00188973 -0.0311805 -0.0287238
-0.00699199 -0.00888171 0.00283459
Vibration 10
-0.00226767 0.00321253 0.0126612
-0.00302356 0.00151178 -0.013984
-0.00188973 0.000944863 -0.020409
0.000377945 0.00226767 -0.00850377
-0.000944863 0.00510226 0.0145509
-0.00075589 0.00510226 0.0292908
0.00075589 0.00529123 0.0124722
0.000188973 -0.0041574 0.0508336
-0.000566918 -0.0192752 0.0640617
-0.00245664 0.00340151 0.0134171
0.00585815 0.00377945 0.013795
0.00585815 0.00396842 0.00699199
-0.00321253 0.00283459 0.000188973
-0.0105825 0.00132281 0.000377945
-0.00982658 0.00151178 0.00718096
-0.00472431 0.00434637 -0.00869274
-0.00132281 -0.00699199 -0.0306136
-0.00812582 -0.0122832 -0.0300466
-0.00888171 -0.0122832 -0.0143619
-0.0020787 -0.00642507 0.000944863
0.00548021 -0.0100155 -0.0120942
0.00548021 -0.0103935 -0.0279679
-0.00340151 0.00491329 0.0383614
0.00661404 -0.00925966 -0.00510226
0.00170075 0.0128501 -0.00132281
0.00340151 -0.0226767 -0.027401
0.00132281 -0.0183303 -0.0228657
0.000944863 0.0257003 0.00774788
0.00434637 0.0219208 0.00661404
0.00188973 -0.0514005 -0.0442196
-0.000377945 -0.0245664 -0.0262672
-0.00359048 0.034771 0.013984
-0.00264562 0.0583925 0.0289128
0.00510226 0.0109604 -0.00170075
0.00774788 -0.0319364 -0.0359048
0.00661404 0.034393 0.0130391
-0.00377945 0.000944863 -0.0287238
0.0190862 -0.0491329 -0.00812582
0.0124722 0.00453534 0.0188973
0.0122832 0.00453534 0.00718096
-0.0173855 0.000377945 -0.00491329
-0.0154958 0 0.00793685
-0.013606 -0.0147399 -0.0387394
-0.0145509 -0.0143619 -0.0115273
0.0111494 -0.0103935 -0.00699199
0.0111494 -0.0113384 -0.0351489
-0.0279679 -0.0145509 0.0708647
0.0190862 0.0389284 0.0576366
-0.00302356 -0.000377945 0.020787
0.0126612 -0.0100155 -0.00907068
0.00188973 -0.0168186 0.00529123
0.013795 -0.0105825 -0.00944863
0.00396842 -0.0958091 -0.0725655
0.000188973 -0.0502667 -0.0427078
-0.00680301 0.0604712 0.0317474
-0.00491329 0.0986437 0.05518
0.0158737 -0.0576366 -0.0568808
Vibration 11
0.013795 -0.0162516 -0.034582
0.0134171 -0.000188973 -0.0306136
-0.00132281 0.00888171 0.00302356
-0.0141729 0.000944863 0.0105825
-0.0143619 -0.0134171 -0.00377945
-0.000188973 -0.0222988 -0.0158737
-0.0192752 -0.0160627 -0.0020787
-0.000188973 -0.0338261 0.00491329
0.000377945 -0.0360938 0.027401
0.0211649 -0.020787 -0.0325033
0.0171965 -0.0359048 -0.0188973
0.00283459 -0.0287238 -0.0062361
-0.00585815 -0.00548021 -0.00736993
0.00566918 0.00661404 -0.0158737
0.0187083 -0.00264562 -0.0289128
-0.034393 0.0075589 0.00321253
-0.00245664 0.0241885 0.02759
-0.00510226 0.0279679 0.0351489
-0.00434637 0.0170075 0.0224877
-0.0020787 0.00170075 0.0020787
-0.000944863 0.0149288 0.0192752
-0.00151178 0.0266451 0.0325033
0.00075589 -0.034393 -0.048566
0.00113384 0.0154958 0.034582
0.00548021 0.0236216 0.0113384
0.00283459 0.00132281 -0.00736993
0.000377945 -0.00170075 -0.00680301
0.00188973 0.00434637 0.00132281
0.00245664 0.0020787 0.00075589
-0.00359048 -0.0041574 -0.00944863
-0.0062361 0.00434637 -0.000566918
-0.00585815 0.013795 0.0096376
-0.00132281 0.0124722 0.0096376
-0.000188973 -0.0149288 -0.0188973
0.00377945 0.00132281 -0.0096376
0.0149288 0.0631168 0.0370386
0.0255113 0.00661404 -0.0466762
0.00736993 -0.00642507 0.00359048
0.0232436 -0.0542351 -0.0192752
-0.00226767 -0.0391173 0.00283459
0.00245664 0.0236216 -0.013795
0.0260782 0.00699199 -0.0362827
-0.00774788 0.0366607 0.0453534
-0.00566918 0.0166296 0.0234326
0.000944863 0.0122832 0.0170075
-0.000944863 0.0330702 0.041196
0.0457314 -0.0162516 -0.089573
-0.0264562 -0.0823921 -0.0738883
-0.0130391 -0.0353379 -0.0294797
-0.0171965 0.0171965 0.048188
0.00888171 0.0217318 0.0636838
0.034204 0.013795 0.0145509
-0.0041574 -0.0111494 -0.0170075
-0.00925966 0.0041574 -0.00113384
-0.00850377 0.0217318 0.0175745
-0.00075589 0.0175745 0.0160627
0.00774788 -0.00925966 -0.0181414
Vibration 12
0.00642507 -0.000944863 0.0187083
0.0062361 0.00736993 0.0145509
0.000944863 0.0103935 -0.0154958
-0.00529123 0.00642507 -0.0308025
-0.00604712 -0.0020787 -0.0183303
-0.000377945 -0.00566918 -0.00472431
-0.0143619 -0.00472431 -0.0115273
-0.000944863 -0.00793685 -0.0232436
-0.00170075 -0.00812582 -0.0398732
0.0181414 -0.00699199 0.0309915
0.0319364 -0.0075589 0.0328812
0.0228657 -0.00226767 0.0181414
0.00075589 0.0020787 0.00302356
0.00661404 -0.00869274 0.0130391
0.0134171 -0.0113384 0.0258892
-0.0366607 0.0230547 -0.0323143
0.00113384 0.00831479 -0.0192752
-0.00680301 0.00075589 -0.0198421
-0.00736993 -0.00774788 -0.0113384
0.00226767 -0.00661404 -0.00075589
0.0117163 -0.00245664 -0.00434637
0.0107714 0.00453534 -0.0143619
0.00188973 -0.0134171 0.0255113
0.0096376 -0.0151178 -0.0107714
-0.00321253 0.00907068 0.0120942
-0.00396842 -0.00245664 0.00302356
-0.00396842 -0.00226767 0.00264562
-0.00340151 -0.0143619 -0.00548021
-0.00548021 -0.0103935 -0.00359048
-0.00585815 0.0179524 0.0154958
-0.00642507 0.0222988 0.0185193
-0.00510226 0.00245664 0.00566918
-0.00377945 -0.0168186 -0.00642507
-0.00944863 -0.00812582 -0.00888171
-0.00453534 -0.00132281 0.00264562
-0.000566918 0.041196 0.0357158
0.0100155 0.0096376 0.0313695
-0.00359048 0.0122832 -0.0200311
0.0470542 -0.00944863 0.0436527
0.0285349 0.000377945 0.0164406
0.00075589 -0.0120942 0.00774788
0.0113384 -0.0154958 0.0292908
-0.0134171 0.00170075 -0.0245664
-0.0145509 -0.0132281 -0.0117163
0.0187083 -0.00340151 0.00113384
0.0181414 0.00793685 -0.0171965
-0.00699199 -0.112061 0.134737
0.0183303 0.117919 0.0693529
-0.00585815 -0.055369 -0.0958091
-0.0251334 0.00680301 -0.0459203
0.0260782 -0.0041574 0.0672742
0.0570697 -0.0723765 -0.0427078
-0.00680301 0.0319364 0.0232436
-0.00774788 0.041385 0.0308025
-0.00510226 0.00340151 0.0062361
-0.00283459 -0.0302356 -0.013795
-0.0111494 0.0179524 0.0202201
Vibration 13
-0.000188973 0.00321253 0.00907068
-0.000377945 0.0041574 0.00245664
0 0.00396842 -0.0132281
-0.000566918 0.00377945 -0.0190862
-0.000944863 0.00264562 -0.00869274
-0.00075589 0.00245664 0.000188973
-0.00434637 0.0020787 -0.0041574
-0.000944863 0.00264562 -0.00585815
-0.00132281 0.00170075 -0.0126612
0.00472431 0.00075589 0.0156847
0.0143619 0.00075589 0.0166296
0.0134171 0.00151178 0.00925966
0.00283459 0.00170075 0.00151178
0.00283459 -0.00396842 0.0062361
0.00264562 -0.00302356 0.0126612
-0.0128501 0.0105825 -0.0170075
0.000377945 -0.00170075 -0.0153068
-0.0062361 -0.00831479 -0.0175745
-0.00585815 -0.0119053 -0.00566918
0.000944863 -0.00812582 0.00850377
0.00774788 -0.00566918 0.00340151
0.00812582 -0.0020787 -0.00850377
0.000377945 0.00075589 0.0164406
0.0096376 -0.0107714 -0.00774788
-0.00321253 0.00245664 0.00548021
-0.00264562 -0.00321253 0.00151178
-0.00188973 -0.00302356 0.000944863
-0.0020787 -0.00548021 -0.00188973
-0.00340151 -0.00321253 -0.00075589
-0.00170075 0.00377945 0.00529123
-0.00132281 0.00718096 0.00680301
-0.00132281 0.00226767 0.00245664
-0.00188973 -0.00472431 -0.00188973
-0.00491329 0.000377945 -0.000566918
-0.00264562 -0.00340151 0.0020787
-0.00321253 0.0147399 0.0151178
-0.00075589 0.00396842 0.00869274
-0.00226767 0.0020787 -0.00718096
0.0215429 0.00132281 0.0221098
0.0185193 0.00283459 0.00869274
0.000944863 -0.00774788 0.00377945
-0.00075589 -0.00529123 0.0141729
-0.0111494 -0.0109604 -0.0260782
-0.0132281 -0.0177634 -0.0062361
0.0151178 -0.00604712 0.0100155
0.013795 0.000566918 -0.0105825
-0.0102045 0.259648 -0.254168
0.0107714 -0.348843 -0.0771008
0.000566918 0.109415 0.362449
-0.020787 0.0075589 -0.0349599
0.0253223 0.00283459 0.0432747
0.0376055 -0.0557469 -0.0270231
-0.00170075 0.00699199 0.00793685
-0.00113384 0.013984 0.0111494
-0.000944863 0.0041574 0.00302356
-0.00170075 -0.00793685 -0.00453534
-0.00604712 0.00434637 0.00925966
Vibration 14
0.00151178 -0.00585815 -0.0145509
0.0020787 -0.00283459 -0.0188973
-0.000377945 -0.00245664 0.0075589
-0.00132281 -0.0020787 0.0379835
-0.00132281 -0.00377945 0.0258892
-0.000188973 -0.0062361 0.00075589
-0.00226767 -0.00548021 0.0196532
-0.000944863 0.00283459 -0.0200311
-0.000566918 0.0164406 -0.034771
0.0149288 -0.013795 -0.0120942
0.0241885 -0.0264562 0.000377945
0.0215429 -0.0255113 0.00718096
0.00925966 -0.0117163 0.00132281
0.0234326 -0.0115273 0.00340151
0.0219208 -0.0117163 -0.00566918
-0.0326923 0.00944863 -0.0111494
0.000188973 -0.00680301 -0.00151178
0.00151178 -0.00925966 -0.00642507
0.00151178 -0.0075589 -0.0075589
-0.000566918 -0.00359048 -0.00359048
-0.00188973 -0.00925966 -0.0100155
-0.00188973 -0.0102045 -0.00831479
-0.00151178 0.0102045 0.0124722
-0.00188973 0.00529123 0.0115273
-0.00699199 0.00396842 -0.00075589
-0.00604712 0.0266451 0.0175745
-0.00453534 0.0113384 0.00680301
-0.00642507 0.0300466 0.013795
-0.00661404 0.0151178 0.00680301
0.0041574 -0.0279679 -0.0170075
0.00888171 -0.0319364 -0.0255113
0.00434637 0.0119053 -0.00283459
-0.00321253 0.0432747 0.0154958
-0.00548021 0.00566918 0.000377945
-0.0160627 0.0555579 0.0272121
-0.0188973 -0.0289128 -0.020409
0.0041574 -0.00188973 -0.0398732
-0.0423299 0.0636838 0.0134171
0.0302356 -0.0360938 0.00245664
0.0245664 -0.0321253 0.013606
0.0302356 -0.00888171 0.00925966
0.0247554 -0.0075589 -0.00888171
0.00245664 -0.0109604 -0.00793685
0.00302356 -0.00774788 -0.00907068
-0.00302356 -0.0109604 -0.013795
-0.00321253 -0.0126612 -0.0100155
-0.0177634 0.00925966 0.0213539
0.00718096 0.020787 0.0192752
0.00453534 0.0132281 0.0122832
-0.0854156 0.0440306 -0.02759
0.0449755 0.0544241 0.0999665
0.0502667 -0.082959 -0.0247554
0.00793685 -0.0576366 -0.0287238
0.0154958 -0.068975 -0.048188
0.00661404 0.0179524 -0.00283459
-0.00661404 0.0710537 0.0262672
-0.0122832 0.0748331 0.0370386
Vibration 15
0.0151178 -0.00869274 0.00585815
0.0151178 -0.00888171 0.0158737
0.0153068 -0.00850377 0.0230547
0.0132281 -0.0075589 0.0302356
0.0120942 -0.00699199 0.0187083
0.0153068 -0.00907068 0.0100155
-0.00566918 -0.0171965 -0.00283459
0.0143619 -0.00869274 -0.00151178
0.0141729 -0.00585815 -0.00907068
0.00434637 -0.00302356 -0.00925966
-0.0124722 0.00359048 -0.0168186
-0.0196532 0.00699199 -0.0170075
-0.0075589 0.0041574 -0.00888171
-0.0102045 0.00907068 -0.0132281
-0.00113384 0.00321253 -0.0115273
0.0166296 -0.00944863 0.0145509
0.0183303 -0.0177634 0.00548021
0.0285349 -0.020976 -0.00850377
0.0292908 -0.0164406 -0.0147399
0.0234326 -0.00718096 -0.00661404
0.0154958 -0.0196532 -0.0156847
0.0153068 -0.0243775 -0.00831479
0.0215429 0.0253223 0.020598
-0.000188973 0.0107714 0.00925966
-0.027401 0.0119053 0.00585815
-0.0224877 0.00321253 0.0041574
-0.0154958 -0.000188973 -0.00434637
-0.0196532 0.00113384 -0.0154958
-0.0266451 -0.00604712 -0.0185193