[Molden Format]
[FREQ]
8.4
21.3
24.9
27.8
33.7
35.5
39.5
42.6
52.2
62.9
76.6
83.9
84.7
98.4
106.6
114.6
138.3
145.5
158.6
162.9
180.4
183.3
201.0
213.9
225.9
230.6
241.3
261.1
281.0
295.0
310.9
316.3
327.9
352.5
354.0
360.2
363.1
371.6
403.5
440.8
451.6
454.1
468.4
487.0
503.5
521.2
522.8
544.8
552.9
571.2
586.9
605.8
612.8
615.9
633.6
646.3
661.0
681.6
704.2
708.1
719.8
742.5
752.9
790.9
813.2
828.3
842.4
850.4
883.0
884.6
885.9
894.5
904.4
926.6
937.5
968.7
976.4
984.1
1008.6
1009.6
1010.9
1015.0
1017.4
1027.1
1035.5
1045.4
1053.1
1075.4
1079.2
1083.7
1122.9
1128.3
1178.8
1179.3
1185.7
1186.9
1188.1
1206.8
1209.3
1233.9
1262.3
1265.6
1269.2
1275.9
1282.9
1283.8
1286.3
1298.1
1302.4
1304.2
1307.0
1330.7
1336.5
1339.9
1340.6
1343.0
1349.7
1354.1
1365.5
1371.2
1376.9
1382.7
1394.7
1427.8
1499.8
1516.5
1523.9
1530.0
1531.1
1554.1
1570.7
1596.1
1601.5
1641.2
1680.3
1697.5
1697.9
1699.3
1703.6
1708.7
1709.7
1820.9
1853.2
2447.7
2651.1
2651.3
2653.7
2668.6
2671.9
2737.5
2740.7
2744.6
2744.8
2745.3
2749.2
2749.5
2755.6
2756.4
2756.8
2758.4
2764.3
2765.3
2766.7
2768.8
2779.3
       
[FR-COORD]
C -1.94302 -2.85878 -0.973776
C 0.689372 -2.85878 -0.973776
C 1.98629 -0.543863 -0.973776
N 0.739639 1.67997 -1.04748
C -1.81319 1.70567 -0.947698
C -3.26375 -0.546887 -0.926911
N -2.89601 4.14644 -0.784236
C -5.93412 -0.511927 -0.849432
N -8.12242 -0.517974 -0.761371
C -3.30022 -5.27196 -0.999287
C -2.87295 -6.9831 -2.97726
C -4.15966 -9.25947 -3.05323
C -5.88404 -9.82109 -1.1104
C -6.30337 -8.15644 0.891951
C -4.99927 -5.8727 0.926344
O -7.0209 -12.0971 -1.41881
C 4.75058 -0.368497 -0.804078
C 6.0664 -1.99706 0.808236
C 8.66307 -1.73382 1.10001
C 9.96528 0.15628 -0.212594
C 8.64965 1.76803 -1.83568
C 6.0509 1.50819 -2.13199
C 12.7468 0.435015 0.125289
C -8.9384 -12.764 0.341285
C -5.34774 4.41875 -1.80488
C -1.37478 6.19433 0.195398
C 0.5261 5.5677 2.17243
C 3.07647 6.15087 1.81036
C 4.00244 7.41151 -0.523265
C -0.267396 4.36205 4.37642
C 1.50441 3.68364 6.20397
C 4.05724 4.21239 5.83188
C 4.83883 5.45337 3.64547
O 6.23666 7.54813 -0.975477
O -1.72778 8.28569 -0.61246
O -6.31187 6.62519 -1.18202
H 1.7325 -4.63002 -0.968107
H -8.01546 6.95211 -1.83228
H -1.5337 -6.50463 -4.47241
H -3.87205 -10.6068 -4.57786
H -7.62202 -8.60014 2.39712
H -5.31561 -4.54347 2.47308
H 5.05672 -3.44799 1.86384
H 9.68503 -2.99257 2.36254
H 9.64176 3.26488 -2.84385
H 5.0176 2.79377 -3.37429
H 13.3005 0.317096 2.12386
H 13.4605 2.24915 -0.591862
H 13.7725 -1.06543 -0.886093
H -9.59225 -14.5917 -0.396653
H -10.4795 -11.3833 0.318041
H -8.14774 -12.9911 2.23819
H -2.26049 3.93422 4.6663
H 0.889116 2.72442 7.91776
H 5.44449 3.64982 7.24219
H 6.8393 5.86949 3.33272
H 2.6082 8.21691 -1.83247

[FR-NORM-COORD]
Vibration 1
0.00359048 0.00718096 -0.00718096
0.00359048 0.00718096 -0.0107714
0.00377945 0.00718096 -0.0170075
0.00396842 0.00718096 -0.0185193
0.0041574 0.00699199 -0.0156847
0.00396842 0.00736993 -0.0109604
0.00396842 0.00736993 -0.0170075
0.00396842 0.00907068 -0.00907068
0.00396842 0.0115273 -0.00774788
0.00359048 0.00718096 0.00170075
0.000566918 0.00113384 0.0062361
0.00188973 0 0.0162516
0.00642507 0.00510226 0.0217318
0.00888171 0.0117163 0.0168186
0.00736993 0.0126612 0.00680301
0.00812582 0.00283459 0.0321253
0.0041574 0.00699199 -0.0221098
0.00661404 0.0102045 -0.020976
0.00699199 0.0107714 -0.0255113
0.00491329 0.00793685 -0.0315584
0.00264562 0.00377945 -0.0338261
0.0020787 0.00340151 -0.0291018
0.00548021 0.00944863 -0.0364717
0.0156847 0.00510226 0.041196
0.0117163 0.0109604 -0.0336371
0 0.00226767 0.000188973
-0.0160627 -0.0107714 0.0115273
-0.0105825 -0.0245664 0.0298577
0.0115273 -0.0228657 0.0396842
-0.0377945 -0.0115273 0.00340151
-0.0540462 -0.0268341 0.0132281
-0.048188 -0.0419519 0.0306136
-0.0264562 -0.0410071 0.0391173
0.0156847 -0.0226767 0.0602823
0.0096376 0.00585815 0.00585815
0.0111494 0.0130391 -0.0417629
0.00359048 0.00718096 -0.00869274
0.0162516 0.0154958 -0.0538572
-0.00264562 -0.00283459 0.0020787
-0.000377945 -0.00472431 0.0202201
0.0119053 0.0158737 0.020787
0.00944863 0.0175745 0.00283459
0.00812582 0.0126612 -0.0160627
0.00907068 0.0134171 -0.0245664
0.00113384 0.00132281 -0.0387394
0 0.000188973 -0.0306136
0.0096376 0.00661404 -0.0377945
0.00245664 0.0111494 -0.034771
0.00453534 0.0119053 -0.041196
0.0188973 -0.000377945 0.0514005
0.0115273 0.000377945 0.0391173
0.0217318 0.0160627 0.0398732
-0.0423299 0.000188973 -0.0105825
-0.0706758 -0.0272121 0.00699199
-0.0606602 -0.054991 0.0379835
-0.0217318 -0.0531013 0.0529123
0.0236216 -0.0215429 0.027401
Vibration 2
0.00529123 -0.00226767 -0.0062361
0.00529123 -0.0020787 -0.00566918
0.00529123 -0.0020787 -0.0075589
0.00491329 -0.0020787 -0.0109604
0.00529123 -0.00226767 -0.0117163
0.00529123 -0.0020787 -0.0115273
0.00283459 -0.00245664 -0.0096376
0.00510226 -0.00113384 -0.0162516
0.00491329 0.000944863 -0.0211649
0.00283459 -0.000944863 0.0020787
-0.00226767 -0.00850377 0.00774788
-0.00944863 -0.00472431 0.0151178
-0.0115273 0.00699199 0.0166296
-0.00472431 0.013795 0.0124722
0.00245664 0.0096376 0.00510226
-0.020409 0.0105825 0.0230547
0.00491329 0.000566918 -0.00188973
0.00472431 -0.00642507 -0.00888171
0.00321253 -0.00170075 0.000377945
0.0020787 0.0102045 0.0164406
0.00264562 0.0166296 0.0222988
0.0041574 0.0120942 0.013606
0.000188973 0.0160627 0.0279679
-0.0262672 0.0253223 0.0224877
0.0134171 -0.00434637 -0.0364717
-0.0107714 -0.00812582 0.0190862
0.00283459 -0.0236216 0.00170075
-0.00377945 0.00377945 -0.00188973
-0.0251334 0.0453534 0.0120942
0.0239995 -0.0633058 -0.0124722
0.0385504 -0.0750221 -0.0309915
0.0321253 -0.0464873 -0.034582
0.0107714 -0.00718096 -0.0200311
-0.0281569 0.0763449 0.00718096
-0.0291018 0.00340151 0.0559359
-0.000377945 -0.00850377 -0.0459203
0.00491329 -0.00226767 -0.00264562
0.00510226 -0.0145509 -0.0638727
-0.000944863 -0.0171965 0.00604712
-0.013984 -0.0103935 0.0192752
-0.00529123 0.0221098 0.0145509
0.0075589 0.0151178 0.00151178
0.00566918 -0.0158737 -0.020787
0.00283459 -0.00699199 -0.00472431
0.0020787 0.0245664 0.0334482
0.00434637 0.0173855 0.0188973
-0.00888171 0.0196532 0.0308025
0.000188973 0.0162516 0.0289128
0.0075589 0.0166296 0.034771
-0.034771 0.0266451 0.0266451
-0.0190862 0.0332592 0.0168186
-0.0296687 0.0264562 0.0241885
0.0291018 -0.0856046 -0.00925966
0.054991 -0.106581 -0.0427078
0.0436527 -0.0548021 -0.0493218
0.00566918 0.0160627 -0.0226767
-0.0381725 0.0464873 0.0266451
Vibration 3
-0.0166296 0.0147399 -0.020409
-0.0166296 0.0102045 -0.0179524
-0.0122832 0.0075589 -0.00793685
-0.00793685 0.0100155 -0.00359048
-0.00831479 0.0141729 -0.0075589
-0.0126612 0.0166296 -0.0162516
-0.00377945 0.0156847 0
-0.0126612 0.0196532 -0.0196532
-0.0128501 0.0211649 -0.0226767
-0.0154958 0.013984 -0.020409
-0.0166296 0.0149288 -0.0217318
0.00075589 0.00491329 -0.00944863
0.0200311 -0.00661404 0.00434637
0.0141729 -0.00302356 0
-0.00396842 0.0075589 -0.0126612
0.0440306 -0.020976 0.020976
-0.0122832 -0.00226767 0.00151178
-0.0243775 -0.0177634 -0.0041574
-0.0234326 -0.034204 0.0020787
-0.0103935 -0.0349599 0.0141729
0.00113384 -0.0170075 0.0224877
0.000188973 -0.000566918 0.0162516
-0.00888171 -0.054991 0.0185193
0.0844708 -0.0493218 0.0538572
-0.00548021 0.0228657 0.00566918
0.000566918 0.0109604 0.00340151
0.00283459 0.00396842 -0.000944863
0.00245664 0.00529123 -0.0020787
-0.000377945 0.0128501 0.00075589
0.00566918 -0.00321253 -0.00377945
0.00793685 -0.00907068 -0.00831479
0.0075589 -0.00774788 -0.0096376
0.00472431 -0.000566918 -0.00661404
-0.00075589 0.013984 -0.00132281
0.0020787 0.0134171 0.00925966
-0.00075589 0.0219208 0.0156847
-0.0200311 0.00812582 -0.0224877
-0.00151178 0.0272121 0.0200311
-0.0294797 0.0226767 -0.0308025
0.00170075 0.00434637 -0.00888171
0.0241885 -0.00869274 0.00718096
-0.0075589 0.0096376 -0.0151178
-0.034204 -0.0179524 -0.013606
-0.0328812 -0.0468652 -0.00283459
0.0113384 -0.0168186 0.0330702
0.00944863 0.0128501 0.0224877
-0.0113384 -0.0712427 0.0181414
0.00359048 -0.055369 0.0302356
-0.0179524 -0.0555579 0.0100155
0.111683 -0.0680301 0.075589
0.0557469 -0.0812582 0.0668963
0.116218 -0.020598 0.0440306
0.00604712 -0.0041574 -0.00264562
0.0102045 -0.0149288 -0.0107714
0.00925966 -0.0124722 -0.0132281
0.00434637 0.000566918 -0.0075589
-0.00170075 0.0171965 0.00491329
Vibration 4
-0.00510226 -0.00359048 -0.0188973
-0.00510226 -0.00472431 -0.0200311
-0.00510226 -0.00491329 -0.0198421
-0.00529123 -0.00491329 -0.0171965
-0.00529123 -0.00377945 -0.0132281
-0.00548021 -0.00359048 -0.0187083
0.00075589 -0.00283459 0.0020787
-0.00566918 -0.00434637 -0.0232436
-0.00585815 -0.00585815 -0.0285349
-0.00661404 -0.00302356 -0.0122832
-0.0141729 -0.00736993 -0.0100155
-0.0154958 -0.00718096 -0.000188973
-0.00888171 -0.00226767 0.00699199
-0.00188973 0.00283459 0.00434637
-0.000944863 0.00226767 -0.00548021
-0.0102045 -0.00302356 0.0170075
-0.00585815 0.00226767 -0.013984
-0.00604712 0.0179524 0.00170075
-0.0103935 0.0400622 0.0215429
-0.0153068 0.0466762 0.0260782
-0.013984 0.0255113 0.00396842
-0.00925966 0.00283459 -0.0166296
-0.0219208 0.0774788 0.05518
-0.000377945 -0.000377945 0.0285349
-0.0113384 0.00944863 0.0360938
0.0188973 -0.00812582 -0.0109604
0.0160627 -0.0130391 -0.00982658
0.0181414 -0.0200311 -0.00661404
0.0255113 -0.0211649 -0.00434637
0.0107714 -0.0128501 -0.0115273
0.00699199 -0.0200311 -0.0103935
0.00869274 -0.0270231 -0.00736993
0.0141729 -0.0270231 -0.00548021
0.0270231 -0.0236216 0.00170075
0.0330702 -0.0105825 -0.0230547
0.00529123 0.00925966 0.0644397
-0.00529123 -0.00472431 -0.0196532
-0.00132281 0.0215429 0.0886281
-0.0190862 -0.0113384 -0.0154958
-0.0211649 -0.0107714 0.00188973
0.00283459 0.00699199 0.0096376
0.00472431 0.0062361 -0.00774788
-0.00340151 0.0145509 -0.000566918
-0.0105825 0.0536682 0.0351489
-0.0175745 0.0287238 0.00491329
-0.00907068 -0.0132281 -0.0332592
-0.0410071 0.0816362 0.0606602
-0.0353379 0.0865495 0.0646286
0.00529123 0.0901399 0.0640617
-0.000377945 -0.00434637 0.0381725
-0.00302356 -0.00340151 0.0309915
0.00907068 0.0075589 0.0257003
0.00925966 -0.00736993 -0.013795
0.00245664 -0.0200311 -0.0120942
0.00585815 -0.0328812 -0.00680301
0.0158737 -0.0325033 -0.00302356
0.0300466 -0.0198421 -0.00831479
Vibration 5
0.0020787 -0.0113384 -0.00604712
0.00188973 -0.0105825 -0.00302356
0.00132281 -0.0100155 -0.00075589
0.000566918 -0.0105825 0.0020787
-0.000188973 -0.0113384 -0.0041574
0.000566918 -0.0119053 -0.0111494
0.00170075 -0.0119053 -0.00151178
0.000188973 -0.0151178 -0.0249444
-0.000377945 -0.0200311 -0.0376055
0.00113384 -0.0111494 -0.00132281
0.000188973 -0.0177634 0.00453534
-0.00472431 -0.0153068 0.0096376
-0.00869274 -0.00585815 0.00869274
-0.00642507 0 0.0041574
-0.00151178 -0.00283459 -0.00075589
-0.0147399 -0.00359048 0.0132281
0.00151178 -0.00869274 -0.00340151
0.00907068 -0.0292908 -0.0304246
0.0100155 -0.0321253 -0.0374166
0.00434637 -0.0141729 -0.0173855
-0.00340151 0.00869274 0.0115273
-0.00434637 0.0113384 0.0185193
0.00585815 -0.0200311 -0.0268341
-0.0247554 0.0103935 0.00774788
-0.0119053 -0.00831479 0.0330702
0.0156847 -0.00699199 -0.0291018
0.00340151 0.00944863 -0.0126612
0.00151178 0.0326923 0.0128501
0.0156847 0.0559359 0.0308025
-0.00661404 -0.000944863 -0.0215429
-0.0183303 0.00869274 -0.00699199
-0.0188973 0.0285349 0.0164406
-0.0096376 0.0410071 0.0272121
0.020409 0.0954312 0.0665184
0.0325033 -0.0183303 -0.0659514
0.00113384 -0.00850377 0.0566918
0.00188973 -0.0105825 -0.00264562
-0.00604712 -0.000188973 0.0801244
0.00283459 -0.0247554 0.00472431
-0.00585815 -0.0202201 0.013606
-0.00850377 0.00661404 0.00434637
0.000188973 0.00188973 -0.00453534
0.0143619 -0.0442196 -0.0457314
0.0158737 -0.0489439 -0.0587705
-0.00774788 0.0224877 0.027779
-0.0102045 0.027401 0.0400622
0.0120942 -0.0253223 -0.0287238
0.00736993 -0.0200311 -0.0253223
-0.000188973 -0.0198421 -0.0332592
-0.0308025 0.0117163 0.0100155
-0.0181414 0.0177634 -0.00170075
-0.0330702 0.0117163 0.0113384
-0.00604712 -0.0168186 -0.0400622
-0.0262672 0.000566918 -0.0143619
-0.0268341 0.0351489 0.0270231
-0.0102045 0.0591484 0.0468652
0.0228657 0.0379835 0.0120942
Vibration 6
0.00132281 -0.00453534 -0.00132281
0.00132281 -0.00642507 -0.0162516
0.00302356 -0.00718096 -0.0120942
0.00321253 -0.00642507 -0.0075589
0.00396842 -0.00510226 0.000377945
0.00283459 -0.0041574 0.0143619
0.0041574 -0.0041574 -0.00812582
0.00396842 -0.0020787 0.048377
0.00529123 0.00132281 0.0801244
-0.00226767 -0.00283459 -0.00302356
-0.0359048 0.0168186 -0.0272121
-0.041385 0.0200311 -0.0302356
-0.0120942 0.00359048 -0.00888171
0.0221098 -0.0160627 0.0145509
0.0262672 -0.0183303 0.0170075
-0.0217318 0.00925966 -0.0151178
0.00264562 -0.00548021 -0.00925966
0.00680301 -0.0292908 -0.0366607
0.00472431 -0.0219208 -0.0247554
-0.000944863 0.0100155 0.0156847
-0.0041574 0.0321253 0.0402512
-0.00151178 0.0230547 0.0266451
-0.00434637 0.020976 0.0340151
0.0154958 -0.0124722 0.0171965
0.00699199 -0.00793685 -0.0158737
0.00472431 -0.00188973 -0.0145509
-0.000377945 0.00245664 -0.00812582
0.000188973 0.00340151 -0.00132281
0.0062361 0.00453534 0.00151178
-0.00585815 0.0041574 -0.00925966
-0.0107714 0.00548021 -0.0041574
-0.0096376 0.00510226 0.00188973
-0.00434637 0.00434637 0.00340151
0.00699199 -0.00529123 0.0020787
0.00944863 -0.00472431 -0.0236216
0.00888171 -0.00188973 -0.0349599
-0.000377945 -0.00736993 -0.0294797
0.0105825 -0.00453534 -0.0404401
-0.0580146 0.0292908 -0.0427078
-0.0674632 0.034582 -0.048188
0.0444086 -0.0285349 0.0302356
0.0517785 -0.0323143 0.034204
0.0117163 -0.0540462 -0.0659514
0.0075589 -0.0404401 -0.0453534
-0.00925966 0.0563138 0.0706758
-0.00359048 0.0393063 0.0447865
-0.0171965 0.013984 0.0372276
-0.00774788 0.02759 0.0472432
0.00925966 0.0304246 0.0336371
0.00434637 -0.00642507 0.0120942
0.0120942 -0.0154958 0.061983
0.0542351 -0.0298577 -0.000944863
-0.00680301 0.0041574 -0.0141729
-0.0149288 0.00680301 -0.00491329
-0.0132281 0.00566918 0.00548021
-0.00359048 0.0041574 0.00831479
0.0102045 0.0145509 0.00340151
Vibration 7
-0.0130391 -0.000944863 0.0187083
-0.0126612 -0.0041574 0.0149288
-0.0102045 -0.00585815 0.00434637
-0.00699199 -0.00491329 -0.00529123
-0.00661404 -0.00113384 0.00453534
-0.0096376 0.000944863 0.0221098
0.00075589 0.00264562 -0.00396842
-0.00869274 0.00718096 0.0455424
-0.00774788 0.0145509 0.0684081
-0.0122832 -0.00132281 0.0107714
-0.00377945 0.00718096 0.00472431
0.00377945 0.00340151 -0.00642507
0.00245664 -0.0096376 -0.0113384
-0.00793685 -0.0173855 -0.00718096
-0.0153068 -0.0130391 0.00396842
0.0130391 -0.0134171 -0.0213539
-0.0100155 -0.00604712 0.0020787
-0.0160627 0.0308025 0.0442196
-0.0162516 0.0353379 0.0430858
-0.0119053 0.00132281 -0.00113384
-0.00661404 -0.0372276 -0.0442196
-0.00661404 -0.0393063 -0.041196
-0.0122832 0.00718096 -0.00377945
0.0175745 -0.0315584 -0.0234326
0.00245664 0.00774788 -0.00585815
0.0134171 0 -0.0162516
0.0102045 -0.00245664 -0.013795
0.0102045 0.00453534 -0.00377945
0.0164406 0.0245664 0.00925966
0.00736993 -0.0147399 -0.0211649
0.00396842 -0.0234326 -0.0213539
0.0041574 -0.0185193 -0.0128501
0.00680301 -0.00359048 -0.00340151
0.0198421 0.0718096 0.041196
0.0255113 -0.00264562 -0.0279679
0.0156847 0.0192752 -0.0258892
-0.013984 -0.00491329 0.0190862
0.0177634 0.0234326 -0.0285349
-0.00245664 0.0168186 0.00888171
0.0111494 0.0100155 -0.0107714
-0.0103935 -0.0264562 -0.0119053
-0.0234326 -0.0194642 0.00793685
-0.020787 0.0576366 0.0765339
-0.020409 0.0651955 0.0763449
-0.000944863 -0.0655735 -0.0805023
-0.0041574 -0.0678412 -0.0723765
-0.00907068 0.0143619 -0.0041574
-0.0164406 0.00661404 -0.00982658
-0.0107714 0.00604712 -0.000566918
0.0287238 -0.0330702 -0.0298577
0.00907068 -0.0410071 -0.0183303
0.0192752 -0.0334482 -0.0243775
0.00718096 -0.0183303 -0.02759
0.00132281 -0.0340151 -0.0281569
0.00188973 -0.0255113 -0.013606
0.00661404 0.00340151 0.00453534
0.0183303 -0.00377945 -0.0100155
Vibration 8
-0.013984 0.00302356 0.0103935
-0.0132281 0.000188973 0.00566918
-0.00907068 -0.00245664 0.000188973
-0.00718096 -0.000944863 -0.00075589
-0.00642507 0.00283459 0.00472431
-0.0103935 0.00510226 0.0117163
0 0.0062361 0.00151178
-0.0100155 0.013606 0.0196532
-0.0096376 0.0230547 0.0270231
-0.0102045 0.00113384 0.00925966
0.0349599 -0.0175745 0.034582
0.048377 -0.0247554 0.0328812
0.013795 -0.013984 0.00548021
-0.034204 0.00548021 -0.020787
-0.0449755 0.0117163 -0.0179524
0.034582 -0.0247554 0.00869274
-0.00907068 -0.00264562 -0.00529123
0.000566918 -0.0255113 -0.0360938
-0.000188973 -0.0196532 -0.0351489
-0.0100155 0.0102045 -0.00188973
-0.0185193 0.0315584 0.0266451
-0.0171965 0.0236216 0.0234326
-0.0117163 0.0194642 0.00396842
-0.00850377 -0.00925966 -0.0323143
0.00302356 0.0128501 -0.00359048
0.00812582 0.00264562 -0.00359048
0.00699199 -0.00075589 -0.00321253
0.00793685 -0.00359048 -0.0020787
0.0103935 -0.000566918 0.000566918
0.00548021 -0.00283459 -0.00491329
0.00453534 -0.00869274 -0.0062361
0.00529123 -0.0124722 -0.00566918
0.00699199 -0.00982658 -0.00359048
0.0102045 -0.0158737 -0.00548021
0.0164406 0.00245664 -0.00774788
0.0122832 0.020598 -0.0162516
-0.0158737 -0.00132281 0.0062361
0.0149288 0.0249444 -0.020787
0.0604712 -0.0260782 0.0544241
0.0844708 -0.0387394 0.0521564
-0.0614161 0.0145509 -0.0419519
-0.0803134 0.0241885 -0.0357158
0.00850377 -0.048188 -0.0595264
0.00680301 -0.0377945 -0.0589595
-0.0268341 0.0548021 0.0521564
-0.0232436 0.0391173 0.0440306
-0.0147399 0.00661404 0.0041574
-0.0181414 0.027779 0.0187083
-0.00359048 0.0315584 -0.00566918
0.013606 -0.0187083 -0.0287238
-0.0107714 -0.0126612 -0.0857936
-0.0555579 0.0130391 -0.0100155
0.00472431 -0.000188973 -0.00548021
0.00302356 -0.0105825 -0.00774788
0.00472431 -0.0177634 -0.00699199
0.00774788 -0.0128501 -0.00302356
0.0126612 0.0156847 0.00793685
Vibration 9
0.0109604 0.00718096 -0.0166296
0.0107714 0.013606 -0.0334482
0.0062361 0.0162516 -0.0317474
0.00283459 0.0143619 -0.0315584
0.00264562 0.00793685 -0.0188973
0.0075589 0.00472431 -0.0041574
-0.00548021 0.00340151 -0.0119053
0.00850377 0.00151178 0.0321253
0.00982658 0 0.0667073
0.0171965 0.00396842 -0.00566918
0.0243775 -0.00680301 0.00491329
0.0249444 -0.00736993 0.0128501
0.0170075 0.00377945 0.00888171
0.0143619 0.0117163 0.00170075
0.0151178 0.0111494 -0.00510226
0.0134171 0.00472431 0.0154958
0.00566918 0.0111494 -0.0171965
-0.0145509 0.00642507 -0.00453534
-0.0151178 -0.00944863 0.0124722
0.00510226 -0.020787 0.0162516
0.0253223 -0.0151178 0.00566918
0.0249444 0.00170075 -0.0103935
0.00491329 -0.0402512 0.034771
-0.0260782 0.0377945 -0.0149288
-0.0168186 -0.00283459 0.013606
-0.0103935 0.00661404 -0.0105825
-0.0128501 0.00264562 -0.00982658
-0.0109604 -0.00472431 -0.00774788
-0.0075589 -0.00075589 -0.00434637
-0.0179524 -0.000188973 -0.0132281
-0.020787 -0.0128501 -0.0153068
-0.0187083 -0.0219208 -0.0141729
-0.013795 -0.0171965 -0.00982658
-0.00699199 0.0020787 0.000188973
-0.013984 0.0062361 -0.00925966
-0.0234326 -0.0151178 0.0489439
0.0149288 0.0158737 -0.0425188
-0.0315584 -0.0164406 0.0699199
0.0285349 -0.013984 0.0062361
0.0298577 -0.0151178 0.020598
0.0119053 0.0179524 0.00151178
0.013606 0.0166296 -0.0100155
-0.0304246 0.0149288 -0.00793685
-0.0313695 -0.0130391 0.0221098
0.041385 -0.0236216 0.00907068
0.0408181 0.00680301 -0.0181414
-0.0120942 -0.0234326 0.0404401
0.0258892 -0.0540462 0.020787
0.000377945 -0.0599043 0.0595264
-0.0387394 0.0440306 -0.0188973
-0.00699199 0.0585815 -0.0455424
-0.0606602 0.034204 -0.00075589
-0.0196532 0.00718096 -0.0145509
-0.0243775 -0.0156847 -0.0183303
-0.020787 -0.0325033 -0.0162516
-0.0122832 -0.0232436 -0.00812582
-0.00604712 -0.000944863 -0.00604712
Vibration 10
-0.00226767 -0.00774788 -0.0317474
-0.00170075 -0.0105825 -0.0470542
0.00132281 -0.0126612 -0.0319364
0.00604712 -0.00907068 -0.0100155
0.00680301 -0.00680301 -0.00340151
0.00321253 -0.00510226 -0.00982658
0.00680301 -0.00736993 0.00736993
0.00377945 0.00359048 0.00925966
0.00434637 0.0132281 0.0268341
-0.0062361 -0.00548021 -0.027401
0.00264562 -0.0232436 -0.0100155
0.00226767 -0.0238105 0.00340151
-0.00812582 -0.00699199 -0.000944863
-0.020976 0.0130391 -0.0202201
-0.0192752 0.0119053 -0.0328812
-0.00396842 -0.0113384 0.0170075
0.00170075 -0.0158737 -0.0306136
-0.00548021 -0.00699199 -0.0158737
-0.00831479 0.00151178 0.00113384
-0.00453534 -0.000377945 0.0020787
0.00377945 -0.0160627 -0.020409
0.00604712 -0.0228657 -0.0357158
-0.0096376 0.0160627 0.0300466
-0.00340151 -0.000377945 0.0219208
0.0132281 -0.00585815 -0.00869274
0.000566918 -0.00982658 0.0190862
0.00491329 -0.00529123 0.0160627
0.00132281 0.00850377 0.0132281
-0.00529123 -0.00661404 0.00245664
0.0119053 0.0041574 0.0234326
0.0145509 0.0372276 0.0332592
0.0103935 0.0583925 0.034771
0.0041574 0.0417629 0.0230547
-0.00529123 0.0166296 0.0096376
-0.00869274 -0.00548021 0.0328812
0.00718096 -0.00718096 -0.0156847
-0.00340151 -0.0117163 -0.0653845
0.0102045 -0.0102045 -0.0251334
0.0105825 -0.0374166 -0.00736993
0.0109604 -0.0376055 0.0171965
-0.0313695 0.0283459 -0.0245664
-0.0272121 0.0245664 -0.0451645
-0.00944863 -0.00453534 -0.0166296
-0.013795 0.0107714 0.0149288
0.00793685 -0.0215429 -0.0239995
0.0111494 -0.0325033 -0.0496998
-0.0311805 0.0326923 0.0372276
-0.0113384 0.0151178 0.0260782
0.00944863 0.0147399 0.0517785
0.00793685 -0.0128501 0.0430858
-0.0105825 -0.00869274 0.00188973
-0.00604712 0.0268341 0.0264562
0.0153068 -0.0115273 0.0234326
0.0198421 0.0474321 0.0410071
0.0120942 0.0878723 0.0447865
0.00113384 0.0557469 0.0222988
-0.0102045 -0.0391173 -0.0120942
Vibration 11
-0.0100155 0.00264562 -0.00869274
-0.0103935 0.00377945 -0.013795
-0.0120942 0.00453534 -0.00907068
-0.0134171 0.00340151 -0.000566918
-0.013606 0.0020787 0.00226767
-0.0124722 0.00132281 -0.00472431
-0.00774788 0.00434637 0.0111494
-0.0126612 -0.00491329 -0.0107714
-0.0130391 -0.0124722 -0.0196532
-0.000566918 -0.00302356 -0.00226767
-0.020598 0.00944863 -0.0171965
-0.00434637 0 -0.00566918
0.0306136 -0.0200311 0.0194642
0.0555579 -0.034582 0.0366607
0.0387394 -0.0245664 0.0253223
0.0434637 -0.0287238 0.0313695
-0.0124722 0.00321253 -0.00812582
-0.0177634 0.00113384 -0.00585815
-0.0181414 -0.00245664 -0.0020787
-0.013795 -0.0041574 -0.000566918
-0.00888171 -0.00264562 -0.00302356
-0.00888171 0.00113384 -0.00680301
-0.0145509 -0.00812582 0.00736993
-0.0472432 0.0311805 -0.0444086
-0.00245664 0.0160627 0.00340151
0.00566918 -0.00264562 0.00699199
0.00699199 -0.00491329 0.00566918
0.00529123 0.00377945 0.00661404
0.00434637 0.000944863 0.00453534
0.0111494 -0.00774788 0.00566918
0.0126612 0.00359048 0.00850377
0.0102045 0.0170075 0.0117163
0.00661404 0.0158737 0.0100155
0.00396842 -0.00699199 0.000188973
0.0160627 -0.00151178 0.00529123
0.0168186 0.0336371 -0.0287238
-0.00925966 0.00434637 -0.0200311
0.020976 0.0394953 -0.0366607
-0.0498888 0.0270231 -0.0377945
-0.0200311 0.00907068 -0.0166296
0.0891951 -0.05518 0.0599043
0.0565028 -0.0340151 0.0368497
-0.0217318 0.00283459 -0.00718096
-0.0213539 -0.00340151 -0.000188973
-0.00529123 -0.0041574 -0.00151178
-0.00548021 0.00245664 -0.00831479
-0.0289128 0.0451645 0.0147399
-0.00075589 -0.0315584 -0.0381725
-0.0147399 -0.041196 0.0566918
-0.0812582 0.0557469 -0.0748331
-0.00075589 0.0823921 -0.0959981
-0.124344 -0.00113384 -0.0162516
0.0132281 -0.0177634 0.00396842
0.0153068 0.00226767 0.00888171
0.0111494 0.027779 0.0153068
0.00510226 0.0243775 0.0109604
0.00472431 0.00585815 0.00736993
Vibration 12
-0.00321253 0.00188973 0.00472431
-0.00302356 -0.00170075 0.00396842
-0.000566918 -0.00359048 0.00170075
0.00245664 -0.00151178 0.00453534
0.00264562 0.00226767 0.00548021
0 0.00321253 0.00302356
0.00188973 0.00245664 0.00264562
-0.000188973 0.00396842 -0.00680301
-0.00075589 0.00264562 -0.0181414
-0.00340151 0.00188973 0.00396842
-0.00699199 0.00699199 -0.00113384
-0.00226767 0.00453534 -0.00132281
0.00548021 -0.00264562 0.00340151
0.00869274 -0.0075589 0.00812582
0.00396842 -0.00472431 0.00831479
0.0113384 -0.00566918 0.00396842
0.000188973 -0.00812582 -0.00453534
0.00321253 -0.0173855 -0.0166296
0.00264562 -0.013984 -0.0132281
-0.000944863 -0.000566918 0.00283459
-0.00245664 0.00321253 0.0075589
-0.00132281 -0.00170075 0.00283459
-0.00377945 0.0115273 0.0147399
-0.00774788 0.00283459 -0.013606
0.00283459 -0.00548021 -0.00340151
-0.00793685 0.00718096 0.00793685
-0.000188973 0.00699199 0.000377945
0.00831479 -0.0476211 -0.0306136
0.00793685 -0.0697309 -0.0419519
-0.00699199 0.0642507 0.0285349
-0.00396842 0.0525344 0.0219208
0.00529123 -0.0200311 -0.0160627
0.0113384 -0.0670853 -0.0408181
0.0158737 0.0891951 0.0438416
-0.0228657 0.00888171 0.0196532
-0.00944863 -0.0115273 -0.00359048
-0.00585815 -0.00340151 0.00377945
-0.00944863 -0.0190862 -0.00812582
-0.0132281 0.0128501 -0.00491329
-0.00491329 0.00812582 -0.00510226
0.0153068 -0.013984 0.0120942
0.0062361 -0.00793685 0.0115273
0.00585815 -0.0268341 -0.0266451
0.00434637 -0.020976 -0.0215429
-0.00340151 0.00869274 0.0147399
-0.00264562 -0.00151178 0.00453534
-0.00472431 -0.0357158 0.0120942
-0.0166296 0.0355268 0.062172
0.00888171 0.0455424 -0.0228657
-0.0109604 0.00699199 -0.020976
-0.000377945 0.0107714 -0.0251334
-0.0249444 -0.00321253 -0.00718096
-0.0143619 0.117919 0.0563138
-0.00982658 0.0992106 0.0457314
0.00736993 -0.0357158 -0.0243775
0.0173855 -0.113006 -0.0650066
-0.000566918 -0.228468 -0.130202
Vibration 13
-0.000377945 0.00075589 0.00907068
-0.000377945 -0.000377945 0.0103935
0.000944863 -0.000944863 0.00453534
0.00151178 -0.000377945 0.00283459
0.00151178 0.00075589 0.00340151
0.000566918 0.00132281 0.00472431
0.00132281 0.00075589 0.000566918
0.000377945 0.00226767 -0.00170075
0.000188973 0.00283459 -0.00831479
-0.00170075 0.00151178 0.00680301
0.00264562 0.00245664 0.00680301
0.00132281 0.00359048 0.000944863
-0.00434637 0.00302356 -0.0041574
-0.00907068 0.00188973 -0.0041574
-0.00793685 0.00132281 0.00113384
-0.0062361 0.00491329 -0.0113384
0.00151178 -0.00188973 -0.00226767
0.00604712 -0.00680301 -0.0102045
0.00566918 -0.00529123 -0.013795
0.00264562 0.000566918 -0.0102045
-0.000377945 0.00245664 -0.00434637
-0.00151178 0.00151178 0
-0.000188973 0.00434637 0.0111494
0.013984 -0.0126612 0.00396842
0.000944863 -0.00113384 0.000566918
-0.000944863 0.00226767 0.000377945
-0.00075589 0.00264562 0.000188973
0.000377945 -0.00472431 -0.00264562
0.00075589 -0.00453534 -0.00245664
-0.00245664 0.00774788 0.00245664
-0.00245664 0.00283459 0.00075589
-0.000944863 -0.0075589 -0.00359048
0.000377945 -0.0105825 -0.00491329
0.00151178 0.00793685 0.00453534
-0.00264562 0.00188973 0.000377945
-0.0020787 -0.00340151 0.00359048
-0.00132281 -0.000944863 0.013795
-0.00226767 -0.00453534 0.00340151
0.0075589 0.00264562 0.0109604
0.00453534 0.00472431 0.000566918
-0.013984 0.00188973 -0.00850377
-0.0122832 0.000566918 0.000944863
0.00907068 -0.0111494 -0.0134171
0.0100155 -0.00661404 -0.0188973
-0.00453534 0.0062361 -0.00264562
-0.0041574 0.0041574 0.00491329
-0.0839038 0.442952 0.061983
0.0765339 -0.177634 -0.369819
0.00113384 -0.250956 0.393441
0.0130391 -0.0107714 -0.000188973
0.00831479 -0.0187083 0.027401
0.034204 -0.020598 -0.00548021
-0.00359048 0.0154958 0.00548021
-0.00377945 0.00680301 0.00245664
-0.00113384 -0.0126612 -0.00566918
0.00151178 -0.0171965 -0.0075589
0.000188973 -0.0156847 -0.00869274
Vibration 14
-0.00831479 0.00529123 0.0291018
-0.00793685 -0.00831479 0.0328812
0.00529123 -0.0160627 -0.00113384
0.0168186 -0.00869274 -0.0211649
0.0177634 0.00434637 -0.0168186
0.00472431 0.0117163 0.00321253
0.0198421 0.00585815 -0.0298577
0.00491329 0.0306136 -0.00850377
0.00434637 0.0510226 -0.020409
-0.0149288 0.00907068 0.0292908
-0.0173855 0.0253223 0.013984
-0.0075589 0.0211649 0.00264562
0.00472431 -0.000566918 0.00736993
0.00340151 -0.0154958 0.0192752
-0.00699199 -0.00850377 0.0298577
0.0228657 -0.00831479 -0.00321253
0.00699199 -0.0289128 -0.0179524
0.0119053 -0.0289128 -0.0219208
0.0100155 -0.0170075 -0.0147399
0.00359048 -0.00472431 -0.00359048
0.00283459 -0.020409 -0.0185193
0.00472431 -0.0319364 -0.0251334
-0.0041574 0.0317474 0.0304246
-0.000188973 -0.0162516 -0.0321253
0.0168186 0.00188973 -0.0279679
-0.00151178 0.00661404 -0.00453534
-0.00264562 0.00170075 -0.00585815
-0.0041574 0.0117163 0.00377945
-0.00264562 0.0128501 0.00472431
-0.00604712 -0.0096376 -0.0132281
-0.0103935 -0.00491329 -0.0075589
-0.0119053 0.0120942 0.00548021
-0.00831479 0.0190862 0.0105825
-0.00377945 -0.00925966 -0.00642507
-0.020598 0.0132281 0.0200311
-0.0145509 -0.0325033 0.0444086
-0.0183303 -0.0143619 0.05518
-0.0164406 -0.0304246 0.0504557
-0.0258892 0.0421409 0.0117163
-0.00888171 0.0332592 -0.00831479
0.0115273 -0.0328812 0.0211649
-0.00888171 -0.0185193 0.0377945
0.0168186 -0.0355268 -0.0264562
0.0126612 -0.013795 -0.013606
-0.000377945 -0.0198421 -0.020598
0.00321253 -0.0391173 -0.0315584
-0.0245664 0.0151178 0.0351489
-0.0241885 0.0519675 0.0616051
0.0298577 0.0602823 0.0228657
0.00548021 -0.0100155 -0.0525344
0.00283459 -0.0134171 -0.0408181
-0.0232436 -0.0306136 -0.0241885
-0.00510226 -0.020409 -0.0228657
-0.0120942 -0.013606 -0.0130391
-0.0153068 0.0188973 0.0115273
-0.00925966 0.0294797 0.0194642
-0.00188973 0.0326923 0.0160627
Vibration 15
-0.00321253 -0.00321253 -0.0266451
-0.00226767 -0.0134171 -0.0103935
0.00529123 -0.0177634 0.0258892
0.0130391 -0.0122832 0.0383614
0.0132281 -0.00302356 0.0120942
0.00566918 0.00113384 -0.00831479
0.0130391 -0.00245664 -0.000944863
0.0062361 0.0175745 0.00377945
0.00680301 0.0376055 0.0232436
-0.0160627 0.00359048 -0.0410071
-0.0326923 0.00151178 -0.0421409
-0.0234326 -0.00548021 -0.020976
0.00132281 -0.00869274 -0.000188973
-0.00151178 0.00604712 -0.0128501
-0.00907068 0.00982658 -0.0323143
0.0368497 -0.0332592 0.0466762
0.00529123 -0.0143619 0.0306136
0.0200311 -0.0020787 0.0298577
0.0213539 0.0109604 0.0141729
0.00718096 0.0096376 -0.00188973
-0.0096376 0.00283459 0.00491329
-0.0096376 -0.00925966 0.0217318
0.0102045 0.0170075 -0.0319364
-0.020409 0.0187083 0.00491329
0.0141729 -0.0132281 -0.00925966
-0.000377945 0.0075589 -0.00264562
-0.00359048 0.0177634 0.00264562
-0.00170075 0.00831479 0.00151178
-0.0020787 0.0236216 0.00982658
-0.00812582 0.020598 0.00283459
-0.00831479 -0.000377945 -0.00510226