[Molden Format]
[FREQ]
-9.7
15.9
24.5
31.1
37.3
42.9
47.0
53.3
59.5
81.9
94.7
95.1
110.5
117.8
135.1
138.3
147.5
152.9
178.6
180.9
197.7
211.8
226.0
247.6
250.1
254.1
273.0
286.1
301.2
324.0
335.5
349.8
354.3
355.2
364.5
367.6
387.9
401.9
422.9
436.8
474.0
490.9
514.6
525.7
535.9
541.6
566.5
568.7
580.9
605.3
611.6
613.2
625.0
636.8
661.0
672.2
683.7
697.8
719.7
737.3
748.6
759.6
780.7
788.8
801.0
833.5
843.0
871.7
884.1
885.5
898.1
904.6
935.2
946.0
951.4
982.4
1002.0
1009.4
1010.1
1017.2
1018.1
1019.5
1033.9
1037.6
1045.6
1074.3
1075.3
1082.8
1090.1
1098.0
1126.9
1177.5
1178.2
1184.4
1187.1
1187.2
1199.4
1205.1
1216.8
1236.1
1244.6
1264.3
1265.7
1272.9
1277.7
1280.5
1284.7
1286.2
1291.5
1292.3
1300.8
1325.4
1332.9
1334.4
1336.0
1348.8
1351.7
1360.4
1366.8
1374.5
1377.8
1388.1
1395.5
1425.6
1455.5
1500.9
1522.3
1525.7
1533.0
1578.2
1581.3
1585.4
1679.6
1693.5
1694.8
1695.3
1709.4
1709.8
1714.6
1760.2
1808.3
1834.4
1884.9
2464.3
2641.6
2650.8
2654.3
2664.4
2672.5
2736.6
2738.8
2741.1
2744.6
2745.0
2746.1
2749.7
2751.0
2757.2
2760.6
2762.6
2763.0
2765.4
2766.7
2778.9
2792.7
       
[FR-COORD]
C -1.85817 -2.93815 0.716962
C 0.83507 -2.93815 0.716962
C 2.149 -0.715828 0.716962
N 0.903289 1.59436 0.91973
C -1.80733 1.71247 1.20149
C -3.13676 -0.686726 0.815984
N -3.07553 3.66153 1.88973
C -5.80656 -0.568052 0.63646
N -7.98296 -0.497943 0.484715
C -3.15414 -5.37929 0.593374
C -2.59875 -7.06984 -1.37364
C -3.77643 -9.39628 -1.48797
C -5.52783 -10.0445 0.406669
C -6.09304 -8.39227 2.38332
C -4.901 -6.05393 2.45457
O -6.52749 -12.3817 0.0791795
C 4.90894 -0.677845 0.358103
C 6.52371 0.061983 2.30717
C 9.12001 0.111872 1.89955
C 10.1121 -0.576555 -0.449188
C 8.48336 -1.34095 -2.3888
C 5.89198 -1.40255 -1.98516
C 12.89 -0.459014 -0.882691
C -8.39322 -13.1784 1.84192
C -2.38162 6.1246 2.73254
C 2.3117 3.87772 0.279679
C 1.35834 5.20317 -1.97968
C -0.446731 7.11482 -1.7977
C -1.47814 8.00053 0.658947
C 2.37161 4.51134 -4.30839
C 1.55695 5.7425 -6.49007
C -0.243019 7.6532 -6.32775
C -1.23758 8.34881 -3.9826
O -1.67581 10.2285 1.07752
O 4.11242 4.43859 1.52199
O -0.565973 6.15881 4.64835
H 1.83152 -4.73943 0.673498
H 0.835826 4.98869 4.36791
H -1.23342 -6.53184 -2.82438
H -3.38393 -10.7314 -3.0007
H -7.44061 -8.89834 3.84559
H -5.32827 -4.73811 3.99016
H 5.74666 0.634192 4.13189
H 10.3801 0.719986 3.40869
H 9.2504 -1.87933 -4.21844
H 4.62624 -2.00708 -3.49448
H 13.9569 -1.29125 0.695608
H 13.5255 1.51556 -1.07166
H 13.4849 -1.45244 -2.60461
H -8.91006 -15.0532 1.11645
H -10.0312 -11.9143 1.80696
H -7.59027 -13.3352 3.74147
H 3.80156 3.03018 -4.42234
H 2.34232 5.2113 -8.31876
H -0.864361 8.62698 -8.0319
H -2.61103 9.8861 -3.85277
H -4.10335 6.94909 3.7084

[FR-NORM-COORD]
Vibration 1
-0.00680301 -0.00453534 -0.00075589
-0.00699199 -0.00340151 -0.0100155
-0.00850377 -0.00264562 -0.00453534
-0.00869274 -0.0041574 0.00699199
-0.00888171 -0.00321253 -0.000377945
-0.0075589 -0.00510226 0.00585815
-0.0126612 -0.00075589 -0.013984
-0.00888171 -0.00793685 0.0200311
-0.00982658 -0.0109604 0.0340151
-0.00585815 -0.00510226 0.00170075
-0.0119053 -0.00264562 -0.0020787
-0.0102045 -0.00359048 0
-0.00264562 -0.00699199 0.00585815
0.00302356 -0.00925966 0.00944863
0.00132281 -0.00831479 0.00736993
-0.00170075 -0.0075589 0.00736993
-0.00944863 0.00170075 -0.0130391
-0.00321253 -0.00774788 -0.0145509
-0.00510226 0.000566918 -0.0247554
-0.0128501 0.0177634 -0.0332592
-0.0188973 0.0257003 -0.0311805
-0.0171965 0.0173855 -0.0211649
-0.0151178 0.0281569 -0.0442196
0.00566918 -0.0109604 0.013606
-0.0219208 0.00245664 -0.0171965
-0.00264562 -0.000566918 0.0304246
0.0258892 0.000566918 0.0194642
0.0226767 -0.00075589 -0.00151178
-0.00548021 -0.000566918 -0.0132281
0.0544241 0.00132281 0.0315584
0.0793685 0.000566918 0.0219208
0.075778 -0.00075589 0.000566918
0.048188 -0.000944863 -0.0109604
-0.0151178 -0.000188973 -0.0194642
-0.020409 -0.000944863 0.0561249
-0.0391173 0.00982658 -0.000944863
-0.00604712 -0.00264562 -0.0200311
-0.0381725 0.00642507 0.0175745
-0.0177634 -0.000188973 -0.00680301
-0.0147399 -0.00188973 -0.00264562
0.00850377 -0.0117163 0.013606
0.00585815 -0.0102045 0.0102045
0.00283459 -0.0211649 -0.00774788
-0.000188973 -0.00642507 -0.0258892
-0.0251334 0.0381725 -0.0376055
-0.0219208 0.0226767 -0.0192752
-0.0062361 0.0194642 -0.0546131
-0.020976 0.0311805 -0.0325033
-0.0196532 0.0423299 -0.0538572
0.00604712 -0.0115273 0.0149288
0.00377945 -0.0134171 0.0196532
0.0124722 -0.0103935 0.0109604
0.0572587 0.00245664 0.0487549
0.101478 0.000566918 0.0313695
0.0956201 -0.00170075 -0.00699199
0.0464873 -0.00132281 -0.0272121
-0.0315584 0.0041574 -0.0351489
Vibration 2
0.0096376 -0.000944863 0.0245664
0.0096376 0.00075589 0.0162516
0.00812582 0.00151178 0.0153068
0.00718096 0.00075589 0.0190862
0.00812582 -0.000377945 0.0264562
0.00850377 -0.0020787 0.0372276
0.00812582 0.00170075 0.020787
0.00680301 -0.00434637 0.0583925
0.00529123 -0.00585815 0.0801244
0.00907068 0 0.0130391
0.00604712 0.0134171 0.000566918
-0.00302356 0.0188973 -0.020409
-0.00907068 0.0107714 -0.0289128
-0.00226767 -0.00491329 -0.013795
0.00718096 -0.0102045 0.0075589
-0.0221098 0.0198421 -0.0527234
0.00736993 0.00491329 0.00982658
0.00982658 0.0141729 0.00453534
0.00869274 0.0200311 -0.00132281
0.00529123 0.0168186 -0.00188973
0.00321253 0.00699199 0.00396842
0.0041574 0.000944863 0.00982658
0.00396842 0.0243775 -0.00850377
-0.0393063 0.0190862 -0.0714316
0.00566918 0.00907068 0.000188973
0.00283459 0.000377945 0.0062361
-0.00188973 -0.0164406 -0.00151178
-0.00774788 -0.020787 -0.0132281
-0.00661404 -0.00491329 -0.0183303
-0.0020787 -0.0300466 0.00226767
-0.00869274 -0.0489439 -0.00566918
-0.0154958 -0.0544241 -0.0177634
-0.0151178 -0.0404401 -0.0217318
-0.0145509 -0.00226767 -0.0364717
0.00226767 0.0109604 0.00188973
0.0132281 0.0296687 -0.0075589
0.0105825 0.00132281 0.0115273
0.0117163 0.0258892 0.000566918
0.0100155 0.0200311 0.00680301
-0.0062361 0.0300466 -0.0309915
-0.00434637 -0.0126612 -0.0185193
0.0119053 -0.0221098 0.0190862
0.0120942 0.0168186 0.00472431
0.0103935 0.027401 -0.00566918
0.000566918 0.00396842 0.00359048
0.00245664 -0.00699199 0.0143619
0.0096376 0.0241885 -0.0122832
-0.00113384 0.0260782 -0.00661404
0.00245664 0.0287238 -0.0115273
-0.0583925 0.034582 -0.0978878
-0.0247554 0.0383614 -0.061794
-0.0487549 -0.0145509 -0.0702978
0.00264562 -0.0262672 0.0117163
-0.00850377 -0.0595264 -0.00264562
-0.0211649 -0.0695419 -0.0241885
-0.020598 -0.0445975 -0.0313695
0.0075589 0.0128501 0.000188973
Vibration 3
-0.013984 0.0115273 -0.00736993
-0.013795 0.00888171 -0.0192752
-0.0107714 0.00680301 -0.0122832
-0.0075589 0.00793685 -0.00642507
-0.0062361 0.0111494 0.0020787
-0.0111494 0.0119053 0.0120942
-0.0020787 0.0143619 0.000944863
-0.013795 0.0130391 0.047999
-0.0162516 0.0134171 0.0852266
-0.0115273 0.0103935 -0.0122832
-0.0194642 0.0241885 -0.0266451
-0.00472431 0.0170075 -0.027401
0.0179524 -0.00434637 -0.013606
0.0217318 -0.0160627 -0.00302356
0.00661404 -0.00812582 -0.00245664
0.0353379 -0.0119053 -0.0130391
-0.00982658 -0.000566918 -0.00529123
-0.0143619 -0.00548021 0.000188973
-0.0119053 -0.0243775 0.0128501
-0.00510226 -0.0385504 0.0198421
-0.00132281 -0.0298577 0.0130391
-0.00377945 -0.0105825 0.000377945
-0.00170075 -0.0646286 0.034771
0.0725655 -0.0427078 0.0122832
0.00151178 0.0153068 -0.00491329
-0.00472431 0.0062361 -0.00661404
-0.00245664 0.0075589 -0.00680301
-0.000377945 0.0096376 -0.00812582
-0.00188973 0.0119053 -0.0096376
-0.00113384 0.00680301 -0.00604712
0.00283459 0.00850377 -0.00661404
0.00548021 0.0109604 -0.00793685
0.00377945 0.0113384 -0.00888171
-0.00548021 0.0124722 -0.013984
-0.00302356 0.00321253 -0.0075589
0.00604712 0.0179524 -0.00925966
-0.0162516 0.00774788 -0.0292908
0.00283459 0.013984 -0.00774788
-0.0359048 0.0402512 -0.0362827
-0.00944863 0.0266451 -0.0372276
0.0360938 -0.0308025 0.00510226
0.00982658 -0.0175745 0.00642507
-0.0190862 0.0041574 -0.00491329
-0.0151178 -0.0292908 0.0173855
0.00377945 -0.0391173 0.0179524
-0.000566918 -0.00434637 -0.00472431
-0.0173855 -0.0614161 0.0470542
0.0156847 -0.0714316 0.0232436
-0.000377945 -0.082959 0.0457314
0.0910848 -0.0498888 0.0171965
0.0531013 -0.0674632 0.0364717
0.1011 -0.0332592 0.000944863
-0.00283459 0.00510226 -0.00510226
0.0041574 0.00812582 -0.00585815
0.00888171 0.0126612 -0.00831479
0.00585815 0.0134171 -0.00982658
0.0041574 0.0179524 -0.00245664
Vibration 4
0.00340151 -0.0102045 -0.0190862
0.00359048 -0.00982658 -0.0325033
0.00283459 -0.0096376 -0.0253223
0.00188973 -0.0100155 -0.0215429
0.00321253 -0.0103935 -0.013984
0.00283459 -0.0111494 -0.00699199
0.00472431 -0.0103935 -0.0105825
0.000566918 -0.0141729 0.020976
-0.00151178 -0.0171965 0.0495108
-0.000188973 -0.00907068 -0.00944863
-0.0287238 -0.00585815 -0.0198421
-0.0394953 -0.000944863 -0.0124722
-0.020409 0.00075589 0.00566918
0.0107714 -0.00359048 0.0181414
0.020598 -0.00850377 0.0105825
-0.0360938 0.00699199 0.00944863
0.00472431 -0.00302356 -0.0107714
-0.0119053 -0.0171965 0.00869274
-0.00944863 -0.00132281 0.027401
0.0096376 0.0294797 0.0264562
0.0262672 0.041196 0.00774788
0.0236216 0.0245664 -0.0109604
0.0115273 0.0515895 0.0453534
-0.020598 0.0111494 0.027779
0.00699199 -0.0130391 -0.00529123
0.00188973 -0.00869274 -0.0170075
0.00075589 -0.00113384 -0.0120942
0.00340151 0.000566918 -0.00396842
0.00604712 -0.00699199 -0.000188973
-0.00151178 0.00661404 -0.0153068
-0.000944863 0.0162516 -0.0102045
0.00188973 0.0183303 -0.00188973
0.0041574 0.0103935 0.00132281
0.0075589 -0.00831479 0.00718096
0.00340151 -0.0124722 -0.0171965
0.00888171 -0.0196532 -0.00699199
0.00340151 -0.0096376 -0.0427078
0.00850377 -0.0187083 -0.0120942
-0.0432747 -0.00699199 -0.0340151
-0.062361 0.00170075 -0.020787
0.0266451 -0.00264562 0.0330702
0.0444086 -0.0113384 0.0196532
-0.027401 -0.0394953 0.00907068
-0.0224877 -0.0119053 0.0425188
0.041385 0.0640617 0.00718096
0.0368497 0.0336371 -0.0255113
0.00812582 0.0568808 0.0504557
-0.00283459 0.0570697 0.0534792
0.0304246 0.0597153 0.0470542
-0.0393063 0.0166296 0.0270231
-0.013984 0.020409 0.0508336
0.000188973 0 0.0181414
-0.00340151 0.00529123 -0.0219208
-0.00283459 0.0222988 -0.0126612
0.00264562 0.0260782 0.00226767
0.00642507 0.0120942 0.00812582
0.00831479 -0.0149288 -0.000944863
Vibration 5
-0.0154958 0.00736993 -0.000944863
-0.0151178 -0.00264562 0.00812582
-0.00812582 -0.00718096 0.0130391
-0.00113384 -0.00340151 0.013984
-0.00188973 0.0062361 0.00472431
-0.00869274 0.0109604 -0.00226767
0.00340151 0.0115273 -0.000377945
-0.00736993 0.0202201 -0.0153068
-0.00604712 0.0289128 -0.0285349
-0.0200311 0.0100155 -0.0100155
-0.0279679 0.020409 -0.0211649
-0.0198421 0.0164406 -0.0221098
-0.00283459 0.00170075 -0.0113384
-0.000944863 -0.00529123 -0.00510226
-0.0100155 -0.000377945 -0.00472431
0.0103935 -0.0041574 -0.00944863
-0.00812582 -0.00812582 0.0128501
-0.0075589 -0.00944863 0.0128501
-0.00888171 0.00925966 0.00585815
-0.0113384 0.0292908 -0.00113384
-0.0113384 0.0232436 0.00132281
-0.00982658 0.00396842 0.00850377
-0.0141729 0.0591484 -0.0115273
0.0542351 -0.0353379 0.0224877
0.0132281 0.00888171 0.000944863
0.00566918 -0.00925966 0.00661404
0.00642507 -0.0188973 0.00075589
0.0145509 -0.0111494 0
0.0374166 0.0020787 0.00491329
-0.0103935 -0.0377945 -0.000566918
-0.0200311 -0.048377 -0.00302356
-0.0124722 -0.041196 -0.00377945
0.00434637 -0.0222988 -0.0020787
0.075778 0.0041574 0.0113384
0.0041574 -0.00642507 0.00699199
0.00113384 -0.00340151 0.0124722
-0.0215429 -0.00604712 0.00888171
0.00434637 0.000377945 0.0105825
-0.0387394 0.0308025 -0.027401
-0.0247554 0.0234326 -0.0296687
0.00774788 -0.0141729 -0.000377945
-0.00812582 -0.00566918 0.000377945
-0.0062361 -0.0224877 0.0173855
-0.00869274 0.0102045 0.00510226
-0.0128501 0.0351489 -0.00283459
-0.0100155 0.000188973 0.0100155
0.000377945 0.0587705 -0.0215429
-0.034582 0.0668963 -0.000377945
-0.0113384 0.0771008 -0.020787
0.0742662 -0.0445975 0.0323143
0.0323143 -0.0631168 0.048566
0.0878723 -0.020598 0.00944863
-0.0168186 -0.0440306 0.000188973
-0.0334482 -0.0627389 -0.00472431
-0.0202201 -0.0506447 -0.0062361
0.0103935 -0.0170075 -0.00321253
0.0124722 0.0202201 -0.0102045
Vibration 6
-0.0126612 -0.000188973 0.0020787
-0.0119053 -0.00245664 -0.00377945
-0.00907068 -0.00472431 -0.00680301
-0.00585815 -0.00264562 -0.0103935
-0.00434637 0.00170075 -0.00340151
-0.00907068 0.00188973 0.00774788
0.00075589 0.00642507 -0.00680301
-0.0103935 0.00774788 0.0308025
-0.0120942 0.0147399 0.0561249
-0.00925966 -0.00170075 0.00245664
0.041574 -0.0249444 0.0359048
0.05518 -0.0317474 0.0379835
0.013606 -0.0153068 0.00529123
-0.0408181 0.00850377 -0.0302356
-0.0508336 0.013795 -0.0308025
0.0340151 -0.0251334 0.0132281
-0.00869274 -0.00529123 -0.00434637
-0.0122832 -0.020787 0.00453534
-0.0119053 -0.0130391 0.00793685
-0.00850377 0.0113384 0.00226767
-0.00491329 0.0243775 -0.00585815
-0.00529123 0.0156847 -0.00907068
-0.00869274 0.0245664 0.00472431
-0.0162516 -0.0041574 -0.0304246
0.00925966 0.00377945 -0.00529123
-0.000944863 -0.00680301 -0.0126612
0.000377945 -0.00264562 -0.0109604
0.0102045 0.00604712 -0.0041574
0.020598 0.00453534 0.000566918
-0.0075589 -0.00359048 -0.013984
-0.00472431 0.00548021 -0.0100155
0.00642507 0.0153068 -0.00283459
0.0134171 0.0154958 0.000188973
0.0393063 0.00453534 0.00944863
0.00245664 -0.0115273 -0.0153068
0.00529123 -0.00736993 -0.00132281
-0.0130391 -0.00321253 -0.00264562
0.00793685 -0.00283459 -0.00793685
0.0718096 -0.0376055 0.0593374
0.0969429 -0.0491329 0.0642507
-0.0736993 0.0219208 -0.0557469
-0.0910848 0.0296687 -0.055369
-0.0153068 -0.0377945 0.00831479
-0.0145509 -0.0247554 0.0147399
-0.00188973 0.0421409 -0.00982658
-0.00264562 0.0258892 -0.0154958
-0.00585815 0.0228657 0.00188973
-0.0173855 0.0283459 0.0134171
-0.00340151 0.034393 0.000944863
0.00907068 -0.0156847 -0.0188973
-0.0177634 -0.00793685 -0.0959981
-0.0716206 0.0241885 -0.00453534
-0.0156847 -0.0109604 -0.0194642
-0.0109604 0.00491329 -0.0124722
0.00944863 0.0228657 0.000377945
0.0222988 0.0226767 0.00566918
0.0107714 0.00925966 -0.00699199
Vibration 7
0.0075589 -0.00396842 0.00340151
0.00699199 0.00302356 0.00340151
0.00151178 0.00661404 0.000188973
-0.00566918 0.00321253 -0.00793685
-0.0075589 -0.000566918 -0.0187083
0.000566918 -0.0075589 -0.00302356
-0.0156847 0.00283459 -0.0432747
-0.00132281 -0.0219208 0.0130391
-0.00321253 -0.0377945 0.0319364
0.0130391 -0.0075589 0.00944863
0.00359048 -0.00170075 0.00188973
-0.00075589 0.00075589 -0.00188973
0.00453534 -0.00245664 0.00188973
0.0200311 -0.0113384 0.013795
0.0241885 -0.013606 0.0175745
-0.00680301 0.00359048 -0.00680301
0.00151178 0.00907068 0.00113384
0.00170075 0.0525344 -0.0154958
0.00132281 0.0478101 -0.0175745
0.00188973 -0.00396842 -0.00226767
0.0020787 -0.0470542 0.0145509
0.00226767 -0.0393063 0.0162516
0.0020787 -0.0149288 -0.00359048
-0.0226767 0.0128501 -0.0194642
-0.0255113 0.00113384 -0.0270231
-0.0105825 0.00661404 -0.00377945
-0.00283459 0.000944863 -0.0102045
0.0111494 0.013795 -0.0041574
0.0319364 0.00925966 0.00585815
-0.0170075 -0.00774788 -0.0130391
-0.0151178 0.000566918 -0.00944863
0.0020787 0.0162516 -0.00245664
0.013984 0.0230547 0.000944863
0.0959981 0.00831479 0.0391173
-0.0247554 0.0215429 0.0102045
-0.0736993 -0.0232436 0.0187083
0.0115273 0.00548021 0.00793685
-0.0402512 0.0177634 0.0075589
-0.00151178 0.00151178 -0.00170075
-0.0096376 0.00585815 -0.00869274
0.0281569 -0.0160627 0.0194642
0.0349599 -0.0196532 0.0257003
0.00226767 0.0884392 -0.0260782
0.00113384 0.082581 -0.0313695
0.0020787 -0.0869274 0.0264562
0.00226767 -0.0710537 0.0287238
-0.00113384 -0.00472431 0.0041574
0.00831479 -0.0187083 -0.020409
-0.000188973 -0.0317474 0.00529123
-0.0434637 0.0249444 -0.0359048
-0.00736993 0.0328812 -0.0145509
-0.0302356 -0.0117163 -0.0183303
-0.0304246 -0.0200311 -0.0187083
-0.0264562 -0.00510226 -0.0126612
0.00566918 0.0232436 0.000188973
0.0268341 0.0338261 0.0062361
-0.0453534 0.0041574 -0.0642507
Vibration 8
0.00907068 0.00548021 -0.0158737
0.00869274 0.0103935 -0.0247554
0.00377945 0.0132281 -0.0141729
0.00113384 0.00944863 0.00396842
0.000188973 0.00529123 -0.00453534
0.00529123 0.00302356 -0.00831479
-0.0075589 0.00226767 -0.0102045
0.00453534 -0.0020787 -0.00340151
0.0041574 -0.00680301 0.000944863
0.0113384 0.0041574 -0.0100155
0.0105825 -0.00245664 -0.00434637
0.00850377 -0.0020787 0.00321253
0.00699199 0.00604712 0.00434637
0.00944863 0.0119053 0.000188973
0.0117163 0.0107714 -0.00699199
0.00283459 0.00680301 0.0113384
0.00377945 0.0173855 -0.0156847
0.00434637 -0.0300466 0.00151178
0.0062361 -0.0498888 0.0109604
0.00699199 -0.0181414 0.00188973
0.00472431 0.0421409 -0.0200311
0.00302356 0.0585815 -0.0287238
0.0105825 -0.0510226 0.0162516
-0.00982658 0.0221098 0.00491329
-0.0187083 0.0041574 -0.00566918
0.00170075 0.013984 0.0162516
0.00548021 0.00491329 0.00944863
-0.00718096 -0.0062361 0.00151178
0.00396842 0.00245664 0.00302356
0.00453534 -0.00283459 0.0115273
-0.0153068 -0.0272121 0.00529123
-0.0340151 -0.0440306 -0.00302356
-0.0291018 -0.0319364 -0.00434637
0.0315584 0.00340151 0.00888171
-0.00944863 0.0173855 0.0298577
-0.041196 0.00226767 0.0153068
0.0122832 0.0126612 -0.0383614
-0.0281569 0.0162516 0.0179524
0.0111494 -0.00831479 -0.00604712
0.00774788 -0.00718096 0.0075589
0.0096376 0.0173855 0.00226767
0.013795 0.0153068 -0.0103935
0.00359048 -0.0538572 0.00869274
0.0075589 -0.0916517 0.0264562
0.00491329 0.0735103 -0.0292908
0.00170075 0.0997775 -0.0440306
-0.00661404 -0.0676522 0.0190862
0.0357158 -0.0583925 0.0236216
0.00642507 -0.0548021 0.0166296
-0.0175745 0.0234326 0.00736993
-0.00245664 0.0315584 -0.00529123
-0.0188973 0.0222988 0.00869274
0.0173855 0.00888171 0.0177634
-0.0173855 -0.034204 0.00642507
-0.0525344 -0.0661404 -0.00888171
-0.0421409 -0.0432747 -0.0111494
-0.0300466 0.00396842 -0.0255113
Vibration 9
-0.00113384 -0.000566918 0.0377945
-0.00132281 0.00075589 0.0500777
-0.00472431 0.00226767 0.0243775
-0.00699199 0.00302356 -0.00283459
-0.00718096 0.00302356 -0.00075589
-0.00396842 -0.00132281 0.0126612
-0.00642507 0.00661404 -0.0100155
-0.00302356 -0.0096376 -0.00661404
-0.00188973 -0.020976 -0.0268341
0.00453534 -0.00396842 0.0353379
-0.00453534 0.0164406 0.0151178
-0.00245664 0.0166296 -0.00151178
0.00944863 -0.00396842 0.00264562
0.0247554 -0.0272121 0.0264562
0.0213539 -0.0255113 0.0425188
0.00566918 0.000944863 -0.0202201
-0.00566918 0.00151178 0.0154958
0.00321253 -0.0366607 0.0221098
0.00226767 -0.0430858 0.013984
-0.00944863 -0.00642507 -0.00170075
-0.0196532 0.0362827 -0.0100155
-0.0181414 0.0389284 -0.00113384
-0.0103935 -0.0126612 -0.0103935
-0.00472431 -0.00888171 -0.0359048
-0.00075589 0.00585815 -0.0111494
-0.00340151 -0.0041574 -0.0168186
-0.00642507 -0.000377945 -0.013606
0.0041574 0.00907068 -0.00888171
0.00548021 0.00642507 -0.0075589
-0.0105825 0.000944863 -0.0160627
-0.000944863 0.0143619 -0.0122832
0.0134171 0.027401 -0.00642507
0.0153068 0.0239995 -0.00472431
0.0128501 0.0062361 -0.00264562
0.00793685 -0.0111494 -0.0294797
-0.00151178 -0.000377945 -0.0102045
0.000377945 0.00113384 0.0718096
0.0020787 0.00548021 -0.0171965
-0.013984 0.0330702 0.0124722
-0.0113384 0.0326923 -0.0179524
0.0379835 -0.0459203 0.0321253
0.0309915 -0.0417629 0.0585815
0.0111494 -0.0606602 0.0326923
0.0105825 -0.075589 0.0200311
-0.0285349 0.0668963 -0.0228657
-0.0260782 0.0685971 -0.0062361
-0.00718096 -0.0298577 -0.0219208
-0.00453534 -0.0132281 0.00396842
-0.020598 0 -0.0213539
-0.0217318 0.0075589 -0.0665184
0.00699199 0.00680301 -0.0175745
-0.00812582 -0.0462983 -0.0376055
-0.0198421 -0.0075589 -0.020598
-0.00359048 0.0154958 -0.013606
0.0230547 0.0396842 -0.00302356
0.0258892 0.0330702 0.000188973
0.000944863 0.00925966 -0.0109604
Vibration 10
-0.0171965 0.00888171 -0.0200311
-0.0171965 0.0020787 -0.0272121
-0.0111494 -0.0020787 -0.0151178
-0.00491329 0 -0.000377945
-0.00434637 0.00585815 0.000566918
-0.0120942 0.0111494 -0.0096376
0.00321253 0.00699199 0.0117163
-0.0115273 0.0211649 -0.0102045
-0.0107714 0.0334482 -0.013795
-0.0113384 0.00529123 -0.013606
-0.0272121 0.0134171 -0.0253223
-0.000944863 -0.00075589 -0.00472431
0.0376055 -0.0200311 0.0239995
0.0544241 -0.0283459 0.0357158
0.0291018 -0.0145509 0.0166296
0.0650066 -0.0355268 0.0468652
-0.0109604 -0.00680301 -0.00944863
-0.0175745 0.00132281 -0.00680301
-0.0168186 0.00699199 -0.000377945
-0.0096376 0.00188973 0.00396842
-0.00245664 -0.0124722 0.00377945
-0.00359048 -0.0162516 -0.00321253
-0.00944863 0.013606 0.0096376
-0.0568808 0.0332592 -0.0510226
0.013984 0.00434637 0.0105825
0.00113384 -0.00075589 0.00661404
0.00566918 0.000188973 0.00585815
0.00264562 -0.00245664 0.00377945
0.00510226 0.00170075 0.00340151
0.0075589 -0.00170075 0.00718096
0.00302356 -0.00869274 0.00510226
-0.00302356 -0.0141729 0.0020787
-0.00245664 -0.0103935 0.00132281
0.000566918 0.00226767 -0.0020787
-0.00132281 -0.00529123 0.0119053
0.0270231 0.00377945 -0.00170075
-0.0219208 -0.000566918 -0.0391173
0.00944863 -0.0185193 0.00585815
-0.0599043 0.0308025 -0.0495108
-0.0119053 0.0041574 -0.0119053
0.0903289 -0.0474321 0.061983
0.0428968 -0.020787 0.0255113
-0.0234326 0.00396842 -0.0100155
-0.0221098 0.0154958 0.000566918
0.00377945 -0.0196532 0.00850377
0.00170075 -0.0251334 -0.00396842
-0.00831479 0.0285349 0.0168186
-0.0194642 0.0158737 -0.000377945
-0.000377945 0.00661404 0.0168186
-0.0878723 0.0521564 -0.0774788
-0.0100155 0.0920297 -0.133037
-0.15817 0.00453534 -0.0103935
0.0113384 0.00170075 0.0100155
0.00377945 -0.0102045 0.00585815
-0.00812582 -0.020787 0.000188973
-0.00642507 -0.013606 -0.00151178
0.0219208 0.00850377 0.020787
Vibration 11
0.00170075 0 -0.00680301
0.00170075 -0.000566918 -0.00793685
0.00188973 -0.000566918 -0.00075589
0.00132281 -0.00170075 0.00680301
0.00075589 -0.000944863 0.00226767
0.00132281 -0.000377945 -0.00113384
0.00151178 0.000566918 -0.000377945
0.00132281 -0.00075589 -0.000188973
0.00113384 -0.00113384 0.00075589
0.00151178 0.000188973 -0.00718096
-0.00075589 -0.00170075 -0.0062361
-0.000188973 -0.00226767 -0.00188973
0.00226767 -0.000566918 0.000944863
0.00359048 0.00188973 -0.00075589
0.00321253 0.0020787 -0.00472431
0.00359048 -0.0020787 0.00699199
0.00188973 0.00151178 -0.000944863
0.00226767 0.00661404 -0.00283459
0.00170075 0.0062361 -0.00359048
0.00170075 0.00264562 -0.00321253
0.00188973 -0.00113384 -0.000944863
0.00170075 -0.00226767 0.000377945
0.0041574 -0.00907068 0.00925966
-0.00264562 0.00566918 0.00396842
0.000944863 0.000944863 -0.000566918
-0.00359048 0 0.00340151
-0.00831479 -0.00642507 0.00170075
0.00680301 0.00774788 0.00245664
-0.00170075 0.0041574 0
-0.0257003 -0.0257003 0
-0.0175745 -0.020787 -0.000377945
0.0113384 0.00604712 0.0020787
0.0221098 0.0185193 0.00302356
-0.0160627 0.00321253 -0.00113384
-0.00529123 0.0075589 0.00245664
0.00170075 0.00340151 -0.00151178
0.00151178 -0.000566918 -0.0134171
-0.000377945 0.000188973 0.0020787
-0.00283459 -0.00283459 -0.00850377
-0.00170075 -0.00396842 -0.00075589
0.00529123 0.00340151 0.00132281
0.00472431 0.00359048 -0.00585815
0.00245664 0.0102045 -0.00396842
0.00340151 0.00774788 -0.00548021
0.000188973 -0.00472431 -0.000566918
0.00188973 -0.00642507 0.00188973
-0.0338261 -0.402701 -0.171209
0.0903289 0.00377945 0.443141
-0.0372276 0.346198 -0.20976
-0.00302356 0.0041574 0.00793685
-0.00075589 0.00793685 -0.00453534
-0.00831479 0.0100155 0.00661404
-0.0442196 -0.0436527 -0.00113384
-0.0319364 -0.0366607 -0.00188973
0.0236216 0.0153068 0.00283459
0.0410071 0.0355268 0.00396842
0.000377945 -0.000377945 0
Vibration 12
-0.00548021 0.000944863 0.0126612
-0.00529123 0.0020787 0.0171965
-0.00472431 0.00170075 0.000944863
-0.00302356 0.00510226 -0.0202201
-0.00170075 0.00264562 -0.00850377
-0.00396842 0.00188973 -0.000188973
-0.00377945 -0.0020787 0.000188973
-0.00396842 0.0041574 0.0020787
-0.0041574 0.00718096 0.00604712
-0.00453534 0.000377945 0.0145509
-0.00170075 0.00453534 0.0115273
-0.00075589 0.00472431 0.00472431
-0.00283459 0 0.00113384
-0.00453534 -0.00529123 0.00491329
-0.00566918 -0.00453534 0.0115273
-0.00264562 0.00113384 -0.00850377
-0.00453534 -0.00491329 0.00340151
-0.00472431 0.00151178 0.00132281
-0.00529123 0.00529123 -0.000377945
-0.00566918 0.000944863 0.000377945
-0.00472431 -0.0134171 0.00566918
-0.00453534 -0.0154958 0.00699199
-0.0062361 0.0105825 -0.000377945
0.00453534 -0.0111494 -0.00680301
-0.00170075 -0.00340151 0.00132281
0.00888171 0.000944863 -0.0124722
0.020976 0.0181414 -0.0075589
-0.0219208 -0.0221098 -0.00888171
0.00340151 -0.0124722 -0.00132281
0.0693529 0.0731324 -0.00302356
0.0457314 0.0599043 -0.00188973
-0.0357158 -0.0160627 -0.0075589
-0.0657625 -0.0523454 -0.0096376
0.0421409 -0.00982658 0.00188973
0.0130391 -0.0173855 -0.00982658
-0.0020787 -0.0100155 0.0020787
-0.00510226 0.00170075 0.0319364
0.00302356 -0.00188973 -0.00831479
0.000188973 0.00812582 0.0145509
0.00113384 0.00831479 0.00188973
-0.00566918 -0.00944863 0.00245664
-0.00774788 -0.00812582 0.013795
-0.00472431 0.00510226 0.000188973
-0.00491329 0.0122832 -0.00359048
-0.00491329 -0.0219208 0.00812582
-0.00453534 -0.0230547 0.00982658
-0.0113384 -0.106014 -0.0578256
0.0102045 0.0177634 0.133037
-0.0170075 0.123399 -0.069164
0.0062361 -0.00888171 -0.0141729
0.00170075 -0.0145509 0.00434637
0.0107714 -0.0185193 -0.0100155
0.122265 0.123966 -0.000944863
0.0865495 0.105636 0.00245664
-0.0710537 -0.041574 -0.00907068
-0.119242 -0.100533 -0.0115273
0.000377945 0 0.00113384
Vibration 13
-0.00604712 -0.00226767 0.0160627
-0.0062361 0.00151178 -0.0130391
-0.0122832 0.00510226 -0.0281569
-0.0149288 -0.000377945 -0.00699199
-0.0119053 -0.00151178 0.0196532
-0.0096376 -0.00264562 0.0217318
0.00491329 0.00302356 0.0402512
-0.00850377 -0.020598 -0.0020787
-0.00680301 -0.0521564 -0.0417629
-0.00283459 -0.00491329 0.0215429
0.00585815 -0.0041574 0.0228657
0.00472431 -0.00264562 0.0128501
-0.00680301 -0.0041574 0.00188973
-0.0103935 -0.00907068 0.00491329
-0.00869274 -0.0096376 0.0147399
-0.0153068 0.00245664 -0.0177634
-0.0143619 0.0238105 -0.0381725
-0.0285349 0.0410071 -0.0321253
-0.0264562 0.0393063 -0.0122832
-0.00869274 0.0132281 0.00264562
0.00434637 0.0213539 -0.0113384
0.000188973 0.0270231 -0.0321253
-0.000566918 -0.0351489 0.0425188
0.00548021 -0.0213539 -0.00699199
0.0376055 0.0020787 0.0188973
-0.0156847 0.00566918 0.0041574
0.00226767 -0.00548021 -0.00793685
0.00283459 -0.00510226 -0.00718096
0.020598 -0.00548021 0.00113384
0.00793685 -0.00529123 -0.00453534
0.0130391 -0.00151178 -0.00453534
0.0120942 -0.00226767 -0.00548021
0.00604712 -0.00396842 -0.00699199
0.0338261 -0.00453534 0.0020787
-0.0417629 0.0232436 0.0334482
0.0721875 0.00661404 -0.0126612
-0.00245664 0.0041574 -0.0234326
0.0257003 -0.0531013 0.0124722
0.0130391 -0.00340151 0.0298577
0.0111494 -0.000377945 0.0124722
-0.0164406 -0.0113384 -0.00132281
-0.013606 -0.0130391 0.0162516
-0.0421409 0.0498888 -0.0402512
-0.0376055 0.0496998 -0.00699199
0.0177634 0.0171965 -0.00434637
0.0105825 0.0279679 -0.0410071
-0.0393063 -0.0455424 0.0636838
0.0377945 -0.0478101 0.041385
0.00793685 -0.0561249 0.0576366
0.00434637 -0.0156847 -0.020598
0.000944863 -0.0264562 0.0222988
0.0253223 -0.0374166 -0.0166296
0.00736993 -0.00585815 -0.0020787
0.0177634 0.00188973 -0.00359048
0.0160627 -0.000188973 -0.00585815
0.00604712 -0.00396842 -0.00869274
0.0593374 0.0194642 0.0421409
Vibration 14
-0.000377945 -0.0141729 0.0234326
0.0020787 -0.0120942 -0.00548021
0.00604712 -0.0141729 -0.0289128
0.00982658 -0.0128501 -0.0173855
0.0153068 -0.0113384 0.00510226
0.00699199 -0.0113384 0.0171965
0.0119053 -0.013795 0.00377945
0.0107714 0.0487549 0.00321253
0.0160627 0.156847 -0.020787
0.00226767 -0.0171965 0.0360938
0.00850377 -0.0143619 0.0340151
0.00453534 -0.0107714 0.0185193
-0.00642507 -0.0156847 0.00718096
0.00170075 -0.0285349 0.0202201
0.00321253 -0.0279679 0.0326923
-0.0291018 -0.000566918 -0.0311805
0.00566918 -0.00888171 -0.0362827
-0.0075589 -0.00264562 -0.0268341
-0.00548021 0.00396842 -0.00793685
0.0132281 0.00264562 0
0.027401 0.00264562 -0.0115273
0.0234326 -0.00321253 -0.0300466
0.0179524 0.000377945 0.0279679
0.00113384 -0.0376055 -0.0166296
-0.0160627 -0.00396842 -0.00529123
-0.00359048 -0.0020787 -0.00359048
-0.00396842 -0.00377945 -0.00529123
-0.00151178 -0.00151178 -0.00151178
-0.00661404 -0.00566918 -0.0020787
-0.0096376 -0.00377945 -0.0075589
-0.00661404 0.00340151 -0.00491329
0.00151178 0.0107714 -0.000188973
0.00321253 0.00718096 0.00151178
-0.00831479 -0.00566918 -0.00132281
-0.0215429 0.0171965 0.0134171
-0.0455424 0.0134171 0.020976
0.000944863 -0.0126612 -0.00925966
-0.00113384 0.0674632 0.00812582
0.0154958 -0.0117163 0.041196
0.00699199 -0.0041574 0.0134171
0.00377945 -0.0374166 0.0188973
0.00283459 -0.0353379 0.0387394
-0.0213539 -0.00377945 -0.0321253
-0.0177634 0.00793685 0.00075589
0.0410071 0.00585815 -0.00680301
0.0359048 -0.00434637 -0.0396842
0.00075589 -0.000566918 0.0393063
0.0221098 -0.000377945 0.034393
0.034393 -0.00075589 0.034393
-0.0257003 -0.013606 -0.0597153
0.00774788 -0.0272121 0.0531013
0.0398732 -0.0956201 -0.0377945
-0.0153068 -0.00888171 -0.0117163
-0.0102045 0.00359048 -0.00642507
0.0062361 0.0185193 0.00264562
0.00774788 0.0111494 0.00529123
-0.0357158 -0.0124722 -0.0309915
Vibration 15
0.00774788 -0.00982658 0.00529123
0.00850377 -0.0075589 0.0117163
0.00661404 -0.00548021 0.0171965
0.00321253 -0.00680301 0.0202201
0.00491329 -0.0113384 0.0313695
0.0075589 -0.0107714 0.020976
0.00151178 -0.0158737 0.0355268
0.00888171 -0.00151178 0.00888171
0.0105825 0.0162516 -0.00736993
-0.00548021 -0.00264562 -0.0147399
-0.0258892 0.00340151 -0.0251334
-0.0294797 0.00396842 -0.0215429
-0.0105825 -0.00264562 -0.00661404
-0.0153068 0.00510226 -0.0143619
-0.00982658 0.0020787 -0.0162516
0.0247554 -0.0232436 0.0300466
0.0062361 0.0117163 0.0100155
0.0111494 0.0221098 0.00226767
0.0103935 0.0224877 -0.00434637
0.00585815 0.0115273 -0.00302356
-0.00075589 0.0270231 -0.00377945
0.000566918 0.0255113 0.00340151
0.00850377 -0.0298577 0.000944863
-0.0113384 0.00396842 0.00472431
-0.0102045 -0.0041574 0.00925966
-0.00907068 -0.0103935 -0.0120942
-0.0179524 -0.0243775 -0.0170075
-0.0185193 -0.0257003 -0.0117163