[Molden Format]
[FREQ]
11.4
25.9
26.7
31.7
35.2
42.2
44.8
51.2
58.2
62.7
75.7
82.1
100.6
115.7
122.3
134.5
144.7
149.9
169.9
178.1
182.6
200.4
223.0
227.7
242.5
255.1
278.0
279.8
286.1
329.0
332.6
348.5
350.5
358.4
363.3
369.2
376.7
384.6
419.0
437.9
465.3
489.8
505.9
517.9
531.3
539.6
547.9
563.6
580.2
588.9
608.3
614.1
617.9
625.2
650.4
658.7
670.2
682.9
707.9
718.5
740.4
757.1
771.6
792.7
807.2
815.6
837.9
851.8
874.2
883.6
884.8
896.7
903.3
941.9
942.3
953.9
1004.2
1005.0
1009.0
1010.4
1016.6
1017.6
1034.7
1035.8
1046.5
1054.6
1074.6
1081.3
1100.2
1105.9
1128.3
1173.1
1179.4
1182.4
1183.5
1187.6
1209.8
1231.0
1243.7
1257.2
1263.7
1267.5
1269.0
1270.9
1280.3
1286.5
1290.5
1297.8
1304.6
1324.9
1328.9
1334.0
1336.9
1348.6
1349.7
1359.7
1364.8
1377.7
1388.2
1391.0
1416.4
1441.0
1451.9
1496.3
1519.8
1522.5
1528.3
1531.0
1559.4
1570.2
1580.9
1589.6
1643.4
1685.8
1696.3
1700.2
1702.4
1706.4
1708.3
1711.6
1761.6
1833.1
1880.2
2428.4
2651.7
2653.7
2666.9
2674.2
2717.2
2740.9
2742.9
2743.6
2745.0
2745.9
2747.1
2750.6
2755.6
2761.2
2763.2
2765.8
2767.0
2768.3
2769.4
2780.8
2782.4
       
[FR-COORD]
C -2.73538 -2.76524 -0.521753
C -0.0260782 -2.76524 -0.521753
C 1.275 -0.541784 -0.521753
N 0.0502667 1.76557 -0.23546
C -2.59573 1.77937 0.200122
C -4.0117 -0.525911 -0.27042
N -3.58084 3.7477 1.48986
C -6.6662 -0.350544 -0.444464
N -8.85318 -0.183492 -0.567485
C -4.02946 -5.18938 -0.857369
C -3.41511 -6.71816 -2.93304
C -4.61584 -9.01532 -3.28302
C -6.44208 -9.78916 -1.51348
C -7.06266 -8.30157 0.572965
C -5.84152 -5.99138 0.883636
O -7.4578 -12.0738 -2.07775
C 4.04534 -0.416307 -0.794441
C 5.55844 -0.272498 1.36022
C 8.16758 -0.0839038 1.10095
C 9.264 -0.041196 -1.30108
C 7.7337 -0.22431 -3.44554
C 5.12683 -0.419141 -3.19836
C 12.054 0.176878 -1.58227
C -9.40158 -12.997 -0.469408
C -2.15126 5.64839 2.43189
C 0.210327 5.25778 3.83218
C 2.61746 5.99497 2.54546
C 3.05777 5.36682 0.0239995
C 1.12571 4.02323 -1.47644
C 4.48167 7.22423 3.93706
C 6.77694 7.83329 2.79679
C 7.20534 7.22764 0.269664
C 5.34263 5.99837 -1.13025
O 0.404023 4.57427 -3.54116
O 0.294986 4.35072 5.92372
O -3.34954 7.91984 2.7161
H 0.966217 -4.56482 -0.582036
H -5.50213 4.02984 1.41087
H -1.99536 -6.07982 -4.28703
H -4.18234 -10.2208 -4.88834
H -8.47278 -8.90137 1.93413
H -6.3045 -4.80633 2.50956
H 4.69351 -0.284026 3.23502
H 9.35074 0.0427078 2.77752
H 8.58484 -0.21335 -5.31504
H 3.93025 -0.560493 -4.86888
H 12.9356 1.21793 -0.0177634
H 12.5997 1.1465 -3.33499
H 12.9388 -1.7068 -1.63102
H -9.90027 -14.7964 -1.37837
H -11.0277 -11.7182 -0.461471
H -8.68291 -13.328 1.44111
H 4.1402 7.67361 5.92183
H 8.24185 8.77532 3.89302
H 9.00152 7.70328 -0.612082
H 5.67976 5.51271 -3.10539
H -2.9355 8.98111 1.21472

[FR-NORM-COORD]
Vibration 1
-0.00321253 -0.00132281 0.0096376
-0.00226767 -0.0041574 0.0156847
-0.000377945 -0.00604712 0.0164406
0.00075589 -0.00359048 0.0120942
0.000944863 -0.00321253 0.0147399
-0.00132281 -0.00113384 0.0115273
0.00566918 -0.00566918 0.0226767
-0.00113384 0.0020787 0.00925966
-0.000944863 0.00434637 0.00812582
-0.00359048 0.000188973 0.000188973
0.000188973 0.00642507 -0.00321253
0 0.00793685 -0.0130391
-0.00434637 0.00340151 -0.0194642
-0.00831479 -0.00283459 -0.0162516
-0.00774788 -0.00434637 -0.0062361
-0.0041574 0.00566918 -0.0292908
0.000188973 -0.00585815 0.0221098
-0.00548021 0.0221098 0.0239995
-0.00510226 0.0266451 0.0283459
0.000377945 0.00321253 0.0306136
0.00604712 -0.0266451 0.0289128
0.0062361 -0.0309915 0.0247554
0.000188973 0.00944863 0.034204
-0.00850377 0.00151178 -0.0366607
0.0041574 -0.00907068 0.027779
0.0230547 -0.0041574 -0.00132281
0.00793685 0.00453534 -0.0247554
-0.00604712 0.00132281 -0.0262672
-0.00774788 -0.0134171 -0.0107714
0.0115273 0.0177634 -0.0406291
0.000944863 0.0258892 -0.0572587
-0.0128501 0.0211649 -0.0585815
-0.0164406 0.0096376 -0.0430858
-0.0160627 -0.02759 -0.0117163
0.0470542 -0.00245664 -0.00151178
-0.00226767 -0.0154958 0.0525344
-0.00453534 -0.00548021 0.0194642
0.00472431 -0.00736993 0.0304246
0.00359048 0.0100155 0.0020787
0.00321253 0.0126612 -0.0156847
-0.0115273 -0.00642507 -0.0213539
-0.0107714 -0.00925966 -0.00359048
-0.00982658 0.0406291 0.0222988
-0.00982658 0.0487549 0.0298577
0.0109604 -0.0462983 0.0309915
0.0105825 -0.0538572 0.0236216
-0.00434637 0.0160627 0.0325033
-0.000188973 0.0062361 0.0323143
0.00510226 0.0117163 0.0404401
-0.0075589 0.00491329 -0.0438416
-0.0075589 0.00264562 -0.0359048
-0.0128501 -0.00529123 -0.0362827
0.0228657 0.0211649 -0.0394953
0.00377945 0.0351489 -0.0693529
-0.020409 0.0266451 -0.0712427
-0.027779 0.00661404 -0.0442196
-0.013606 -0.00132281 0.0593374
Vibration 2
-0.0156847 0.0177634 -0.0162516
-0.0154958 0.013795 -0.0175745
-0.0119053 0.0115273 -0.0103935
-0.00869274 0.0126612 -0.00585815
-0.00831479 0.0151178 -0.00396842
-0.0124722 0.0183303 -0.00850377
-0.00340151 0.0128501 0.00377945
-0.0126612 0.0213539 -0.00321253
-0.0128501 0.0228657 0.000944863
-0.0141729 0.0171965 -0.0185193
-0.0241885 0.0281569 -0.0294797
-0.00812582 0.0187083 -0.0221098
0.0187083 -0.00170075 -0.00321253
0.0230547 -0.00869274 0.00283459
0.00604712 0.00151178 -0.00510226
0.0387394 -0.0130391 0.00661404
-0.0109604 0.00340151 -0.00359048
-0.0173855 0.000377945 0.00113384
-0.0151178 -0.0192752 0.00944863
-0.00661404 -0.0360938 0.0132281
-0.00075589 -0.0289128 0.00850377
-0.00302356 -0.00888171 0
-0.00321253 -0.0644397 0.0236216
0.0852266 -0.0487549 0.0421409
-0.000188973 0.0075589 0.00888171
0.00340151 0.00188973 0.00170075
0.00245664 -0.000188973 -0.00151178
-0.0020787 0.00510226 -0.00377945
-0.0075589 0.0128501 -0.00377945
0.00718096 -0.00736993 -0.00132281
0.00699199 -0.0100155 -0.00283459
0.00245664 -0.00548021 -0.00472431
-0.0020787 0.00226767 -0.00529123
-0.0119053 0.020409 -0.000188973
0.00642507 0.000377945 0.000944863
0.00113384 0.00661404 0.0221098
-0.0185193 0.0122832 -0.0228657
-0.00321253 0.0156847 0.00736993
-0.0428968 0.0428968 -0.0421409
-0.0143619 0.0257003 -0.0291018
0.0394953 -0.0217318 0.0141729
0.0100155 -0.00396842 0
-0.0238105 0.0117163 -0.00188973
-0.0200311 -0.0228657 0.0132281
0.00566918 -0.0402512 0.0113384
0.00170075 -0.00453534 -0.00359048
-0.00396842 -0.0396842 0.0075589
0.0153068 -0.105069 0.00718096
-0.0187083 -0.0729434 0.0676522
0.105258 -0.0602823 0.0536682
0.0602823 -0.0808803 0.0676522
0.124344 -0.0315584 0.0304246
0.0107714 -0.0111494 0.000188973
0.0103935 -0.0154958 -0.00264562
0.00264562 -0.00774788 -0.00585815
-0.00585815 0.00604712 -0.00680301
-0.000944863 0.013984 0.0266451
Vibration 3
0.00132281 -0.00113384 0.0232436
0.00132281 0.00075589 0.0222988
0 0.00151178 0.0183303
0 0.00113384 0.0194642
0 0.000188973 0.0200311
0.00075589 -0.00170075 0.0266451
-0.00302356 0.00793685 0.00510226
0.000188973 -0.00377945 0.0325033
-0.000188973 -0.00548021 0.0372276
0.00491329 -0.00132281 0.0122832
0.020598 0.00453534 0.0122832
0.0255113 0.00453534 -0.00245664
0.013606 -0.0020787 -0.0173855
-0.0020787 -0.00831479 -0.0177634
-0.0062361 -0.00793685 -0.00245664
0.0200311 -0.00132281 -0.0315584
-0.000944863 -0.00226767 0.00680301
0.0103935 0.0160627 -0.00245664
0.0100155 0.00075589 -0.0179524
-0.00170075 -0.0336371 -0.0239995
-0.0134171 -0.048377 -0.0141729
-0.0132281 -0.0325033 0.00132281
-0.00151178 -0.0563138 -0.0394953
0.00377945 -0.00453534 -0.0529123
-0.00491329 0.0190862 -0.0128501
-0.0113384 0.0332592 0.00151178
-0.00642507 0.020976 0.00377945
-0.0020787 0.00453534 0.00850377
-0.00226767 -0.000188973 0.0132281
-0.00680301 0.0255113 0.000188973
-0.00302356 0.013795 0.00132281
0.00113384 -0.00264562 0.00585815
0.00151178 -0.00736993 0.00944863
-0.00340151 -0.00736993 0.0119053
-0.0194642 0.0519675 0.00982658
-0.00944863 0.0196532 -0.0340151
0.00245664 0.00132281 0.0236216
-0.00359048 0.00453534 0.00377945
0.0292908 0.0096376 0.0236216
0.0379835 0.00925966 -0.00283459
-0.0111494 -0.0134171 -0.0292908
-0.0187083 -0.0132281 -0.00226767
0.0198421 0.0408181 0.00188973
0.0190862 0.0141729 -0.0255113
-0.0230547 -0.0735103 -0.0187083
-0.0224877 -0.0445975 0.00888171
0.00982658 -0.0239995 -0.0672742
-0.00132281 -0.101478 -0.0644397
-0.0126612 -0.0625499 0.00264562
0.0117163 -0.00170075 -0.0625499
0.00453534 -0.00340151 -0.0651955
-0.0149288 -0.0100155 -0.0468652
-0.0100155 0.0383614 -0.00321253
-0.00321253 0.0171965 -0.00132281
0.00377945 -0.0115273 0.00680301
0.00472431 -0.0198421 0.0130391
-0.0124722 0.00566918 -0.0445975
Vibration 4
0.00075589 -0.00680301 0.00472431
0.000566918 -0.00510226 -0.0103935
-0.000944863 -0.0041574 -0.00661404
-0.0020787 -0.00548021 -0.00113384
-0.000188973 -0.00642507 0.00869274
0 -0.00907068 0.0226767
0.00188973 0.00245664 -0.00359048
-0.00245664 -0.0154958 0.0525344
-0.0041574 -0.0211649 0.0752111
-0.00075589 -0.00566918 0.000944863
-0.0281569 0.0166296 -0.0234326
-0.0330702 0.020409 -0.0321253
-0.00944863 0.00188973 -0.0156847
0.0200311 -0.0213539 0.00944863
0.0236216 -0.0243775 0.0175745
-0.0194642 0.00944863 -0.0287238
-0.000566918 -0.000566918 0
-0.00888171 -0.0215429 0.00736993
-0.00831479 -0.0134171 0.0196532
0.000566918 0.0166296 0.0241885
0.00907068 0.0360938 0.0164406
0.00850377 0.0272121 0.0041574
0.00075589 0.0291018 0.0368497
0.00888171 -0.0122832 -0.00718096
0.00850377 0.0107714 -0.0264562
-0.000188973 0.0149288 -0.0115273
0.00566918 0.00264562 -0.00774788
0.00302356 -0.00699199 -0.00585815
-0.00491329 -0.0020787 0.000188973
0.0107714 -0.00226767 -0.0107714
0.0132281 -0.0151178 -0.0128501
0.0103935 -0.0234326 -0.0113384
0.00548021 -0.0198421 -0.00793685
-0.0130391 0.00075589 0.00377945
-0.00944863 0.0230547 -0.00774788
0.0158737 0.0181414 -0.054991
0.00113384 -0.00434637 -0.0213539
0.00226767 0.00359048 -0.00151178
-0.0459203 0.0309915 -0.0353379
-0.0548021 0.0376055 -0.0508336
0.0387394 -0.0362827 0.0224877
0.0455424 -0.041385 0.0360938
-0.0162516 -0.0434637 0.00396842
-0.0151178 -0.0294797 0.0257003
0.0164406 0.0585815 0.0198421
0.0154958 0.0421409 -0.0020787
-0.00585815 0 0.0599043
0.00283459 0.0655735 0.0576366
0.00566918 0.0323143 0.00151178
-0.00510226 -0.00151178 -0.0211649
0.0075589 -0.0141729 0.0364717
0.0417629 -0.0353379 -0.0236216
0.0122832 0.00472431 -0.0120942
0.0173855 -0.0183303 -0.0154958
0.0119053 -0.0323143 -0.0128501
0.00340151 -0.0266451 -0.00661404
0.0187083 -0.00283459 -0.069164
Vibration 5
-0.00661404 0.00510226 0.00982658
-0.00642507 0.00718096 0.0119053
-0.0075589 0.00793685 0.00226767
-0.0096376 0.00699199 -0.00718096
-0.00774788 0.0062361 0.00170075
-0.00774788 0.00529123 0.0062361
-0.0020787 0.00604712 0.00699199
-0.0075589 0.00642507 0.00510226
-0.00736993 0.00812582 0.00491329
-0.000944863 0.00264562 0.00812582
0.034582 -0.0119053 0.0289128
0.0455424 -0.0171965 0.0268341
0.0187083 -0.00793685 0.00321253
-0.0185193 0.00699199 -0.0185193
-0.02759 0.0115273 -0.0154958
0.0351489 -0.0158737 0.00566918
-0.0075589 0.00661404 0.00188973
-0.00661404 -0.0425188 0.00434637
-0.00585815 -0.0487549 0.0075589
-0.0062361 -0.00491329 0.00812582
-0.00774788 0.0470542 0.00472431
-0.00831479 0.0525344 0.00132281
-0.00510226 -0.0141729 0.0122832
-0.00264562 0.00113384 -0.0304246
0.00302356 0.00491329 0.0020787
0.00642507 0.00321253 -0.00359048
0.00585815 -0.00396842 -0.00925966
-0.00264562 -0.00132281 -0.0113384
-0.0130391 0.00812582 -0.00642507
0.0147399 -0.0143619 -0.0120942
0.0145509 -0.0222988 -0.0168186
0.00566918 -0.0196532 -0.0188973
-0.00302356 -0.00925966 -0.0162516
-0.0251334 0.0170075 0.000188973
0.00944863 0.00699199 -0.0020787
0.00566918 0.00585815 0.00642507
-0.00491329 0.00774788 0.0198421
-0.0020787 0.00774788 0.0130391
0.0542351 -0.0188973 0.0459203
0.0740773 -0.0281569 0.0428968
-0.0394953 0.0143619 -0.0368497
-0.0555579 0.0217318 -0.0308025
-0.0062361 -0.076156 0.00434637
-0.00491329 -0.0880612 0.00982658
-0.00812582 0.082959 0.00472431
-0.00925966 0.0914627 -0.00132281
-0.000188973 -0.0453534 0.0302356
0.000188973 0.0130391 0.0289128
-0.0147399 -0.0179524 -0.0200311
0.0149288 -0.00604712 -0.0262672
-0.000944863 0.00377945 -0.0782347
-0.0464873 0.0162516 -0.0113384
0.0215429 -0.0158737 -0.0103935
0.0211649 -0.0302356 -0.0188973
0.00548021 -0.0255113 -0.0224877
-0.0100155 -0.0075589 -0.0177634
0.00264562 0.00604712 0.00585815
Vibration 6
-0.0120942 0.0041574 0.00075589
-0.0120942 0.0020787 -0.00151178
-0.00944863 0.000944863 -0.00340151
-0.00850377 0.00113384 -0.00793685
-0.00699199 0.00453534 -0.00075589
-0.0100155 0.00548021 0.0041574
0.000188973 0.00850377 -0.00113384
-0.0102045 0.00888171 0.0119053
-0.0103935 0.0119053 0.0179524
-0.0105825 0.00377945 -0.000944863
0.0102045 -0.00472431 0.0111494
0.0200311 -0.00982658 0.0120942
0.00736993 -0.00661404 0.000566918
-0.0168186 0.00340151 -0.013984
-0.0253223 0.00812582 -0.0141729
0.0228657 -0.0145509 0.00548021
-0.00944863 0.000566918 -0.00075589
-0.0141729 0.0491329 -0.000566918
-0.0151178 0.0633058 0.000944863
-0.0113384 0.027779 0.0020787
-0.00566918 -0.0291018 0.00283459
-0.00472431 -0.0425188 0.00151178
-0.0132281 0.0525344 0.00188973
0.0119053 -0.0132281 -0.00699199
0.013984 0.00377945 -0.00907068
0.00661404 -0.0132281 -0.00245664
0.0119053 -0.0177634 0.00472431
0.0062361 -0.0102045 0.00151178
-0.00472431 0.00529123 0.00170075
0.0190862 -0.0336371 0.00850377
0.020787 -0.0396842 0.00793685
0.0145509 -0.0298577 0.00472431
0.00736993 -0.0156847 0.00132281
-0.0132281 0.0202201 0.00869274
-0.000944863 -0.0291018 -0.00907068
0.0364717 0.0175745 -0.0292908
-0.0130391 0.00151178 0.000944863
0.00226767 0.0177634 -0.000566918
0.0198421 -0.00736993 0.0198421
0.0374166 -0.0164406 0.0219208
-0.0283459 0.00718096 -0.0241885
-0.0432747 0.0145509 -0.0239995
-0.0173855 0.0776677 -0.00170075
-0.0190862 0.103746 0.00075589
-0.00170075 -0.0616051 0.00434637
-0.000566918 -0.0844708 0.00226767
-0.0221098 0.0634948 -0.000566918
-0.0232436 0.0546131 -0.000377945
0.0041574 0.0608492 0.00491329
0.0302356 -0.0224877 0.00113384
0.00529123 -0.0215429 -0.0323143
-0.00548021 0.0041574 0.00264562
0.0230547 -0.0400622 0.0105825
0.0262672 -0.0510226 0.0102045
0.0151178 -0.0330702 0.0041574
0.00283459 -0.00831479 -0.00132281
0.0498888 0.00151178 -0.0370386
Vibration 7
-0.0143619 0.0020787 0.0130391
-0.013606 -0.0113384 0.0313695
-0.0041574 -0.0177634 0.0287238
0.00585815 -0.0102045 0.0226767
0.00321253 0.00170075 0.0075589
-0.00510226 0.00812582 -0.000188973
0.00472431 0.00812582 -0.00170075
-0.00283459 0.0213539 -0.0245664
-0.000944863 0.0309915 -0.0430858
-0.0192752 0.00604712 0.00151178
-0.0170075 0.0149288 -0.00453534
-0.00925966 0.0119053 -0.0100155
-0.00302356 -0.00075589 -0.00888171
-0.0105825 -0.00604712 -0.0075589
-0.0192752 -0.00188973 -0.00245664
0.0107714 -0.0062361 -0.0113384
-0.00491329 -0.0217318 0.0194642
0.00831479 -0.0289128 0.0100155
0.00566918 -0.00793685 -0.00680301
-0.0115273 0.020976 -0.013795
-0.0241885 0.0185193 -0.00472431
-0.020598 -0.00340151 0.0119053
-0.0166296 0.0591484 -0.0353379
0.0419519 -0.0370386 0.00850377
0.000377945 0.00831479 0.00151178
0.00245664 0.0183303 0.00264562
0.00529123 0.000566918 -0.0020787
0.0107714 -0.0153068 0.00302356
0.0173855 -0.0260782 0.00434637
0.00510226 0.00566918 -0.00548021
0.00888171 -0.00510226 -0.00321253
0.013606 -0.0200311 0.00132281
0.0147399 -0.0255113 0.00472431
0.0349599 -0.0470542 -0.0075589
-0.00132281 0.0472432 0.0153068
-0.0100155 0.0020787 0.0117163
-0.0222988 -0.0164406 0.041196
0.00472431 0.0096376 -0.00699199
-0.0200311 0.0236216 -0.00340151
-0.00642507 0.0177634 -0.013795
-0.00982658 -0.0132281 -0.00982658
-0.0249444 -0.00585815 -0.00132281
0.0213539 -0.0474321 0.0156847
0.0160627 -0.0111494 -0.013795
-0.0364717 0.0360938 -0.0103935
-0.0311805 -0.00302356 0.0192752
-0.00774788 0.00170075 -0.00226767
-0.047999 0.138706 -0.00132281
0.00132281 0.0701088 -0.125667
0.0602823 -0.0444086 0.0128501
0.0224877 -0.061983 0.0255113
0.0661404 -0.0268341 0.00113384
0.00151178 0.0177634 -0.00869274
0.00793685 -0.00170075 -0.00491329
0.0160627 -0.02759 0.00226767
0.0181414 -0.0377945 0.00831479
-0.0141729 0.0107714 0.0168186
Vibration 8
0.0113384 -0.00321253 -0.0154958
0.0115273 0.00321253 -0.0196532
0.00661404 0.00604712 -0.0153068
0.000944863 0.00264562 -0.00907068
0.00188973 -0.00529123 -0.00472431
0.00642507 -0.00661404 -0.0119053
0.00132281 -0.0130391 0.00510226
0.00642507 -0.0117163 -0.0164406
0.00642507 -0.0158737 -0.0211649
0.0130391 -0.00491329 -0.00907068
0.00359048 -0.00907068 -0.00850377
-0.00302356 -0.00680301 -0.00151178
0.000188973 0 0.00453534
0.0128501 0.00245664 0.00680301
0.0192752 -0.000377945 -0.000188973
-0.0107714 0.00359048 0.00944863
0.00699199 0.0096376 -0.0105825
0.000566918 0.0289128 -0.00699199
0.00113384 0.0291018 0
0.00888171 0.00944863 0.00302356
0.0158737 -0.0103935 0
0.0149288 -0.0102045 -0.00680301
0.00982658 0.00944863 0.0111494
-0.020787 0.020598 0.00718096
-0.0147399 -0.000944863 0.00321253
-0.00680301 0.0370386 0.00472431
0.000188973 -0.0062361 -0.00774788
-0.00377945 -0.00661404 -0.00793685
-0.0170075 0.0109604 -0.00585815
0.0194642 -0.0362827 -0.00491329
0.0291018 -0.0667073 -0.00132281
0.0213539 -0.0640617 -0.00321253
0.00453534 -0.034393 -0.00642507
-0.0440306 0.0330702 0.00982658
-0.0117163 0.113762 0.0385504
-0.0629279 -0.0302356 0.0510226
0.0151178 0.00548021 -0.0249444
-0.00245664 -0.0266451 0.0173855
0.000377945 -0.013795 -0.013984
-0.0113384 -0.0096376 -0.00170075
0.0173855 0.00642507 0.0132281
0.0287238 0.00188973 0.000944863
-0.00529123 0.0430858 -0.0096376
-0.00434637 0.0442196 0.00264562
0.0217318 -0.0264562 0.00264562
0.020787 -0.0260782 -0.00944863
0.00245664 0.0292908 0.0020787
0.0154958 -0.0109604 0.00151178
0.0120942 0.0100155 0.0372276
-0.0359048 0.0253223 0.0062361
-0.0096376 0.0349599 0.00604712
-0.0255113 0.013795 0.00774788
0.0253223 -0.0359048 -0.00359048
0.0419519 -0.0910848 0.00245664
0.02759 -0.0848487 -0.00188973
-0.0020787 -0.0340151 -0.0075589
-0.103179 0 0.061794
Vibration 9
-0.00642507 -0.00302356 -0.0381725
-0.00548021 -0.00831479 -0.0616051
0.000944863 -0.0130391 -0.0308025
0.0119053 -0.0100155 0.0100155
0.0113384 -0.0075589 0.00736993
0.00340151 -0.00170075 -0.000188973
0.00982658 -0.0075589 0.00510226
0.00113384 0.00699199 0.0374166
0 0.0147399 0.0680301
-0.0143619 0.00113384 -0.0362827
0.00377945 -0.0251334 -0.0117163
0.00736993 -0.0296687 0.00529123
-0.0102045 -0.00831479 -0.00321253
-0.0366607 0.0222988 -0.0330702
-0.0376055 0.0245664 -0.0487549
0.00245664 -0.0200311 0.0222988
0.00188973 -0.0143619 -0.0228657
-0.00888171 -0.013984 -0.0147399
-0.00850377 -0.00566918 -0.00075589
0.00359048 0.00245664 0.00472431
0.0153068 -0.000944863 -0.00321253
0.0141729 -0.00925966 -0.0170075
0.0041574 0.0164406 0.020787
0.000566918 -0.00812582 0.0272121
0.00302356 -0.00151178 0.00302356
0.00188973 0.013984 0.00907068
0.000566918 0.0124722 0.00642507
0.00548021 0.000566918 0.0105825
0.0143619 -0.0102045 0.00888171
-0.0062361 0.0287238 0.00188973
-0.0075589 0.0323143 0.00170075
-0.00132281 0.0183303 0.00604712
0.00548021 0.00245664 0.0109604
0.0287238 -0.0221098 0.000566918
0.00113384 0.0334482 0.0175745
-0.0128501 -0.0100155 0.00925966
-0.0100155 -0.0100155 -0.0937304
0.00869274 -0.0117163 0.00736993
0.0170075 -0.0428968 -0.00642507
0.0245664 -0.0504557 0.0255113
-0.0548021 0.0428968 -0.0425188
-0.05518 0.0444086 -0.0680301
-0.0185193 -0.0190862 -0.0190862
-0.0173855 -0.00472431 0.00529123
0.0247554 0.0041574 0.00113384
0.0234326 -0.0102045 -0.0234326
-0.0120942 0.0309915 0.0202201
0.0100155 0.00907068 0.0185193
0.0153068 0.0213539 0.0377945
0.0234326 -0.0298577 0.0574477
-0.0109604 -0.0228657 -0.00812582
-0.0096376 0.0338261 0.0383614
-0.0109604 0.0385504 -0.00113384
-0.0130391 0.0451645 -0.0020787
-0.00188973 0.0200311 0.00566918
0.0103935 -0.00774788 0.0141729
-0.0245664 -0.00548021 0.00944863
Vibration 10
-0.00170075 -0.00226767 0.00831479
-0.00170075 -0.00434637 0.0120942
-0.000377945 -0.00510226 0.00718096
0.000566918 -0.0041574 0.00359048
0.000566918 -0.00170075 0.00264562
-0.000566918 -0.000944863 0.00283459
0.00151178 0.000188973 0.000566918
0 0.00132281 -0.00453534
0.000566918 0.00340151 -0.0105825
-0.00359048 -0.000944863 0.00548021
-0.00245664 0.00113384 0.0041574
-0.00396842 0.00264562 -0.000377945
-0.00604712 0.00151178 -0.00302356
-0.00793685 -0.000377945 -0.00226767
-0.00661404 -0.00151178 0.00188973
-0.00661404 0.00283459 -0.0075589
-0.00075589 -0.00245664 0.00264562
0.00377945 -0.0153068 0.000944863
0.00170075 -0.00510226 -0.00396842
-0.00283459 0.0166296 -0.00699199
-0.00642507 0.0291018 -0.0041574
-0.00604712 0.0198421 0.00075589
-0.00188973 0.0236216 0.00642507
0.00510226 -0.00812582 0.000188973
0.00283459 -0.000377945 -0.000566918
0.00264562 -0.00113384 -0.000377945
0.00321253 -0.00396842 -0.00113384
0.00264562 -0.00566918 -0.00075589
0.00302356 -0.00718096 0
0.0041574 -0.00434637 -0.00188973
0.0041574 -0.00566918 -0.00264562
0.00302356 -0.0062361 -0.00264562
0.00245664 -0.00680301 -0.00151178
0.00680301 -0.0119053 -0.00245664
0.00188973 0.000944863 0.000566918
0.00510226 0.000944863 -0.00283459
-0.00283459 -0.00510226 0.0164406
0.00188973 0.00151178 -0.000188973
-0.000377945 0.00170075 0.00661404
-0.00321253 0.00434637 -0.00151178
-0.0105825 -0.000566918 -0.00510226
-0.00831479 -0.00264562 0.00226767
0.00774788 -0.0326923 0.00264562
0.00699199 -0.013984 -0.00699199
-0.0128501 0.0461093 -0.00699199
-0.00907068 0.0304246 0.0020787
-0.0750221 0.393252 -0.197287
0.0285349 -0.352623 -0.190862
0.0461093 0.034582 0.451267
0.0119053 -0.0109604 0.00188973
-0.00170075 -0.0171965 0.00642507
0.013984 -0.00453534 -0.00264562
0.00472431 -0.00359048 -0.0020787
0.00453534 -0.00548021 -0.00340151
0.00264562 -0.00642507 -0.00377945
0.0020787 -0.00812582 -0.00132281
0.00680301 -0.000566918 -0.00340151
Vibration 11
-0.0115273 0.013984 0
-0.0107714 0.00869274 -0.00283459
-0.00774788 0.00529123 -0.00774788
-0.00283459 0.0103935 -0.0164406
-0.0041574 0.0185193 -0.0249444
-0.00793685 0.0151178 -0.00491329
-0.0062361 0.0198421 -0.02759
-0.0105825 0.0124722 0.0281569
-0.0126612 0.00982658 0.0595264
-0.00510226 0.00944863 0.0075589
-0.0119053 0.0213539 -0.00340151
0.00566918 0.0117163 0.00170075
0.0281569 -0.00774788 0.0164406
0.0368497 -0.020598 0.0279679
0.020598 -0.0109604 0.0239995
0.0476211 -0.0185193 0.0228657
-0.00718096 0.000377945 -0.00434637
-0.00982658 0.00226767 -0.00283459
-0.0096376 0.00321253 -0.000188973
-0.00736993 0.00170075 0.000944863
-0.00453534 -0.00302356 -0.000566918
-0.00472431 -0.00340151 -0.00321253
-0.00718096 0.00529123 0.00434637
-0.0328812 0.0283459 -0.0476211
-0.0143619 0.00907068 -0.000188973
-0.00925966 -0.0062361 -0.0107714
-0.00680301 -0.0153068 -0.00944863
-0.000188973 0.00151178 -0.0120942
0.0221098 -0.0102045 -0.0308025
-0.00680301 -0.0319364 0.0062361
-0.00170075 -0.0281569 0.0190862
0.00264562 -0.0041574 0.0141729
0.00396842 0.0109604 -0.000566918
0.0778567 -0.0462983 -0.0600933
-0.0134171 -0.00340151 -0.00925966
-0.0266451 -0.00340151 0.0468652
-0.0147399 0.0062361 0.00132281
-0.00642507 0.0202201 -0.034204
-0.0311805 0.0383614 -0.0154958
0.00075589 0.0196532 -0.00566918
0.0580146 -0.0389284 0.041574
0.0281569 -0.020409 0.0328812
-0.0120942 0.00359048 -0.00377945
-0.0115273 0.00548021 0.000944863
-0.00245664 -0.00566918 0.000377945
-0.00321253 -0.00548021 -0.00434637
-0.0130391 0.020976 -0.00283459
-0.00566918 -0.00869274 -0.00283459
-0.00302356 0.00699199 0.0226767
-0.0457314 0.0419519 -0.0670853
-0.00170075 0.0684081 -0.101856
-0.10677 0.00831479 -0.0232436
-0.0111494 -0.048566 0.00944863
-0.00188973 -0.0432747 0.0325033
0.00510226 0.00151178 0.0222988
0.00812582 0.02759 -0.0041574
-0.0241885 0.034393 0.0744552
Vibration 12
-0.0124722 0.000188973 -0.0170075
-0.0126612 -0.0062361 -0.0221098
-0.00661404 -0.0096376 -0.00699199
0.00075589 -0.00850377 0.0147399
0.000566918 -0.00548021 0.0149288
-0.00604712 0.00245664 -0.00453534
0.00680301 -0.00472431 0.0179524
-0.0041574 0.0141729 -0.0213539
-0.00226767 0.0238105 -0.0396842
-0.0122832 -0.000377945 -0.0166296
-0.0300466 0.00774788 -0.0279679
-0.0128501 -0.00396842 -0.0111494
0.020409 -0.0222988 0.0151178
0.034771 -0.027779 0.0232436
0.0181414 -0.0166296 0.00736993
0.0461093 -0.0402512 0.0398732
-0.00680301 -0.013795 -0.0062361
-0.0100155 -0.0154958 -0.00359048
-0.0103935 -0.00907068 0
-0.00774788 -0.000944863 0.00132281
-0.0041574 -0.00510226 -0.000944863
-0.0041574 -0.0117163 -0.00472431
-0.00869274 0.0151178 0.00642507
-0.0455424 0.0234326 -0.0340151
0.0141729 -0.00170075 0.00434637
0.0109604 0.00793685 0.0109604
0.00869274 0.013984 0.00925966
0.00793685 -0.00604712 0.013984
-0.00321253 -0.000566918 0.0236216
0.00396842 0.0357158 -0.0041574
0.00075589 0.0332592 -0.0120942
0.00377945 0.00453534 -0.00491329
0.00718096 -0.0153068 0.00793685
-0.0245664 0.0166296 0.0355268
0.013795 0.0096376 0.0115273
0.0234326 0.00680301 -0.0213539
-0.0170075 -0.00831479 -0.0374166
0.00736993 -0.00075589 0.0219208
-0.0568808 0.0224877 -0.0487549
-0.0247554 0.000944863 -0.0181414
0.061794 -0.0428968 0.0444086
0.0308025 -0.0215429 0.0145509
-0.0126612 -0.0200311 -0.00491329
-0.0126612 -0.00907068 0.00170075
-0.00151178 -0.0020787 0.000377945
-0.00151178 -0.013984 -0.0062361
-0.0200311 0.034204 0
-0.0102045 0.00396842 -0.000188973
0.00434637 0.020598 0.0247554
-0.0578256 0.0313695 -0.0428968
-0.0111494 0.0674632 -0.106581
-0.13058 0.0154958 -0.00340151
0.00302356 0.054991 -0.00888171
-0.00302356 0.0523454 -0.0234326
0.00283459 -0.00075589 -0.0096376
0.00831479 -0.0349599 0.0132281
0.0228657 -0.0147399 -0.0366607
Vibration 13
0.00170075 -0.00377945 -0.00604712
0.00170075 -0.00434637 -0.0096376
0.00170075 -0.0041574 0.00132281
0.00283459 -0.00548021 0.0221098
0.00302356 -0.00812582 0.020976
0.00283459 -0.0041574 0.00680301
0.00585815 -0.00302356 0.0153068
0.00434637 0.00170075 -0.0100155
0.00585815 0.00774788 -0.0285349
-0.000944863 -0.00188973 -0.0107714
-0.00604712 -0.00321253 -0.0111494
-0.00585815 -0.00434637 -0.00604712
-0.000566918 -0.0041574 -0.000566918
0.00132281 -0.00075589 -0.00245664
0.000944863 -0.000188973 -0.0075589
0.0041574 -0.00888171 0.0096376
0.00132281 0.00170075 0.000188973
0.000944863 0.00302356 0.000377945
0.00113384 0.00113384 0.00113384
0.00188973 -0.00188973 0.00151178
0.00170075 0.00377945 0.000944863
0.00151178 0.00585815 0.000377945
0.00283459 -0.013984 0.00226767
-0.00699199 0.00340151 0.00340151
0.0164406 -0.00396842 0.00283459
0.00132281 0.000188973 0.0302356
0.00888171 -0.0360938 0.0232436
-0.0302356 0.0255113 0.000944863
-0.0107714 -0.00491329 0.00548021
0.0391173 -0.0886281 0.0294797
0.0132281 -0.041196 0.00245664
-0.0461093 0.0672742 -0.0334482
-0.0651955 0.0942973 -0.0315584
0.0111494 -0.0512116 -0.0149288
-0.0221098 0.0587705 0.0563138
0.0434637 0.0175745 -0.0525344
0.00170075 -0.00396842 -0.0213539
0.00793685 0.00566918 0.00925966
-0.00982658 -0.00377945 -0.0153068
-0.00869274 -0.00566918 -0.00585815
0.00377945 0.00075589 0.00075589
0.00321253 0.00188973 -0.00831479
0.000566918 0.00359048 0
0.00075589 0.00075589 0.00132281
0.00188973 0.0062361 0.00113384
0.00151178 0.0102045 0
0.00812582 -0.0239995 0.00585815
0.00736993 -0.0100155 0.00566918
-0.00642507 -0.0181414 -0.00510226
-0.00642507 0.000377945 0.00907068
-0.00396842 0.00736993 -0.0109604
-0.0179524 0.0102045 0.00888171
0.0780457 -0.158359 0.0525344
0.0357158 -0.0814472 0.00680301
-0.0746442 0.123588 -0.0612271
-0.105636 0.164973 -0.0561249
0.0714316 -0.0185193 -0.0704868
Vibration 14
0.0100155 0.00510226 -0.0245664
0.0105825 0.00302356 -0.00283459
0.00925966 0.00264562 0.0362827
0.00283459 0.00075589 0.0427078
-0.0020787 -0.00321253 0.0188973
0.00453534 -0.00075589 -0.00226767
-0.0124722 0.00359048 0
0.00321253 -0.0096376 0.00529123
0.00188973 -0.0194642 0.0158737
0.00472431 0.0113384 -0.0421409
-0.00944863 0.0075589 -0.0423299
-0.0105825 0.0041574 -0.0245664
0.00453534 0.00888171 -0.00736993
0.00340151 0.0247554 -0.0188973
0.00548021 0.0239995 -0.0349599
0.0234326 -0.0103935 0.0359048
0.00982658 0.013984 0.041196
0.0270231 0.0175745 0.0281569
0.0264562 0.013795 0.00566918
0.00774788 0.00718096 -0.00264562
-0.0113384 0.0187083 0.0096376
-0.00850377 0.0211649 0.0319364
0.00699199 -0.0188973 -0.0308025
-0.00680301 0.0338261 0.0258892
-0.0141729 0.00491329 0.000377945
-0.00925966 -0.00264562 -0.00925966
-0.0102045 0.00604712 -0.00718096
-0.0100155 0.000944863 -0.0062361
-0.0105825 -0.0115273 0.00793685
-0.00434637 -0.00359048 -0.00736993
0.00264562 -0.0253223 -0.00548021
0.00226767 -0.0311805 -0.0041574
-0.00604712 -0.0160627 -0.0062361
-0.0211649 -0.0393063 0.00434637
-0.00396842 -0.0313695 -0.0219208
-0.0100155 0.00736993 -0.00944863
0.00907068 0.00264562 -0.0145509
-0.0115273 0.00245664 -0.0103935
-0.0187083 0.00359048 -0.0534792
-0.0190862 -0.00283459 -0.0215429
0.00491329 0.034771 -0.0128501
0.0113384 0.0328812 -0.0394953
0.0428968 0.0211649 0.0353379
0.0400622 0.0128501 -0.00396842
-0.02759 0.0221098 0.00226767
-0.0228657 0.0257003 0.041574
0.0317474 -0.0190862 -0.0447865
-0.000566918 -0.0338261 -0.041385
-0.0113384 -0.027779 -0.0292908
0.0124722 0.00699199 0.068786
-0.00736993 0.0334482 -0.0434637
-0.0445975 0.0890061 0.0496998
-0.00302356 0.00226767 -0.00869274
0.00944863 -0.0374166 -0.00396842
0.00812582 -0.0478101 -0.00113384
-0.00793685 -0.0211649 -0.00529123
-0.00472431 0.00245664 -0.0117163
Vibration 15
-0.00396842 -0.00302356 0.00188973
-0.00453534 0.00321253 -0.0170075
-0.013795 0.00850377 -0.0166296
-0.0158737 0.00340151 0.00718096
-0.0117163 -0.00226767 0.0228657
-0.00680301 -0.00434637 0.013606
-0.00359048 -0.0109604 0.0432747
-0.00604712 -0.0166296 -0.00944863
-0.00604712 -0.0362827 -0.0391173
-0.00113384 -0.00529123 0.00359048
0.00170075 -0.0075589 0.00585815
0.00151178 -0.00718096 0.00453534
-0.00283459 -0.00604712 0.000566918
-0.0020787 -0.00680301 0.00151178
-0.00170075 -0.00699199 0.00245664
-0.00907068 -0.00151178 -0.00642507
-0.0160627 0.034204 -0.0224877
-0.027779 0.0555579 -0.0153068
-0.0270231 0.0506447 -0.00321253
-0.0151178 0.020409 0.00170075
-0.00661404 0.0404401 -0.00604712
-0.00850377 0.0462983 -0.0183303
-0.00774788 -0.0540462 0.0185193
-0.00188973 -0.00850377 -0.0020787
0.0062361 -0.0041574 0.0190862
0.00982658 0.00831479 0.013606
0.00283459 0.0183303 0.00585815
-0.000944863 -0.00075589 0.0105825
0.00566918 -0.00510226 0.00529123