[Molden Format]
[FREQ]
-16.6
10.4
24.7
32.1
34.1
37.5
40.7
45.1
56.2
62.5
69.8
73.3
88.6
93.3
97.3
113.3
131.3
138.5
157.7
170.2
181.6
199.6
202.9
226.7
237.7
247.2
263.0
272.4
296.3
313.3
320.4
322.9
335.9
347.9
354.3
358.4
381.3
404.1
421.3
427.9
454.9
476.0
487.2
504.7
523.9
532.9
542.1
542.5
567.9
569.6
581.2
591.4
605.1
616.2
620.5
635.3
649.4
668.1
694.8
701.1
724.2
727.0
742.4
765.2
780.1
807.8
833.0
835.2
846.2
867.9
884.2
885.8
899.1
903.9
939.3
965.4
968.9
979.6
1005.7
1008.9
1010.3
1015.6
1018.1
1019.9
1034.8
1047.2
1069.8
1074.6
1080.1
1082.5
1096.7
1127.3
1178.8
1183.1
1187.2
1188.7
1190.8
1202.9
1207.4
1219.0
1233.9
1258.6
1262.3
1269.3
1277.9
1280.1
1283.3
1286.4
1297.5
1304.5
1326.3
1328.7
1334.6
1339.5
1341.6
1349.1
1351.5
1357.3
1365.2
1381.1
1385.9
1393.2
1408.6
1428.1
1499.6
1516.2
1520.3
1527.6
1529.6
1555.3
1566.6
1594.5
1600.9
1646.9
1674.8
1689.6
1697.9
1700.1
1702.8
1708.3
1709.3
1829.1
1857.5
2450.9
2651.5
2653.8
2667.3
2672.7
2736.9
2742.1
2742.7
2743.1
2745.0
2746.1
2748.4
2750.1
2754.1
2758.0
2762.4
2763.1
2766.0
2766.5
2767.8
2769.9
2779.8
       
[FR-COORD]
C -1.25591 -2.26049 1.74592
C 1.37893 -2.26049 1.74592
C 2.68814 0.0491329 1.74592
N 1.46435 2.2894 1.82831
C -1.09207 2.30452 1.85684
C -2.55226 0.0532903 1.80148
N -2.31643 4.62189 2.05054
C -5.21791 0.196532 1.72419
N -7.39998 0.347521 1.63008
C -2.63296 -4.65742 1.60287
C -2.17111 -6.28844 -0.434259
C -3.47426 -8.54818 -0.636082
C -5.25155 -9.17292 1.23815
C -5.72322 -7.57837 3.28491
C -4.40117 -5.30937 3.44724
O -6.38708 -11.4311 0.809748
C 5.45696 0.175933 1.54277
C 6.78714 2.1643 2.6647
C 9.39628 2.33022 2.38219
C 10.6968 0.518541 0.970752
C 9.36586 -1.47474 -0.143619
C 6.76049 -1.64746 0.140785
C 13.49 0.685026 0.650822
C -8.29023 -12.2057 2.54036
C -2.07379 6.55848 0.593752
C -0.541973 7.06531 -1.80507
C 0.420086 4.82447 -3.18683
C -1.16464 3.04057 -4.31311
C -3.98033 3.11899 -4.40193
C 3.04 4.56992 -3.33083
C 4.08389 2.47063 -4.53648
C 2.51636 0.653278 -5.61438
C -0.100722 0.953745 -5.52669
O -4.81634 4.90119 -2.8926
O -0.0712427 9.19465 -2.42263
O -3.44856 8.60695 1.19091
H 2.4094 -4.03853 1.76047
H -6.67772 5.01401 -2.77242
H -0.793685 -5.76064 -1.87499
H -3.15868 -9.83451 -2.20531
H -7.09687 -8.06327 4.72715
H -4.75625 -4.03154 5.02951
H 5.76083 3.59766 3.74449
H 10.4201 3.88263 3.25864
H 10.3731 -2.89241 -1.23758
H 5.73683 -3.19345 -0.754379
H 14.0616 0.404023 -1.32697
H 14.4572 -0.772898 1.7771
H 14.2618 2.51787 1.24571
H -8.89135 -14.0259 1.74176
H -9.86739 -10.8671 2.5534
H -7.5024 -12.4735 4.43349
H 4.27135 5.98363 -2.46968
H 6.13103 2.25407 -4.61414
H 3.33234 -0.99513 -6.53354
H -1.33339 -0.448621 -6.40674
H -4.45578 8.35561 2.78357

[FR-NORM-COORD]
Vibration 1
-0.00736993 -0.00925966 0.00321253
-0.00736993 -0.00321253 0.000188973
-0.0126612 -0.000188973 -0.00321253
-0.0181414 -0.00302356 -0.00680301
-0.0183303 -0.00888171 -0.00566918
-0.0128501 -0.0122832 0.00245664
-0.0249444 -0.0111494 -0.0171965
-0.013795 -0.020976 0.0126612
-0.0149288 -0.0302356 0.0257003
-0.00151178 -0.0128501 0.00699199
-0.00226767 -0.0113384 0.00548021
0.00340151 -0.0147399 0.00850377
0.0096376 -0.0198421 0.0128501
0.0100155 -0.0211649 0.013795
0.00453534 -0.0175745 0.0109604
0.0154958 -0.0234326 0.0158737
-0.0130391 0.00510226 -0.00359048
-0.0160627 0.00680301 -0.00302356
-0.0162516 0.0103935 -0.00226767
-0.0132281 0.0124722 -0.00226767
-0.0102045 0.0111494 -0.00340151
-0.0100155 0.0075589 -0.0041574
-0.0132281 0.0158737 -0.000944863
0.0196532 -0.0270231 0.0188973
0.00226767 -0.00510226 -0.00604712
0.0461093 0.000566918 0.0232436
0.0185193 0.00151178 0.00264562
-0.00188973 0.0232436 -0.00377945
-0.000377945 0.0572587 -0.00585815
0.0156847 -0.0243775 -0.00396842
-0.00793685 -0.0296687 -0.0151178
-0.0283459 -0.0107714 -0.0173855
-0.0251334 0.0154958 -0.0111494
0.0239995 0.128123 -0.0754001
0.1011 0.00075589 0.0655735
-0.00718096 -0.00699199 -0.0234326
-0.00340151 -0.00075589 0.00075589
0.0262672 0.169697 -0.0924076
-0.00774788 -0.00718096 0.00188973
0.00321253 -0.013795 0.00774788
0.0145509 -0.0245664 0.0168186
0.00472431 -0.0187083 0.0119053
-0.0183303 0.00510226 -0.00283459
-0.0185193 0.0115273 -0.00151178
-0.00812582 0.0126612 -0.00340151
-0.00774788 0.0062361 -0.00453534
-0.0115273 0.0128501 0.000188973
-0.0119053 0.0196532 0.00283459
-0.0164406 0.0183303 -0.00396842
0.0247554 -0.0300466 0.0219208
0.0154958 -0.0321253 0.0185193
0.0222988 -0.0221098 0.0185193
0.0313695 -0.0400622 -0.000566918
-0.0102045 -0.0493218 -0.0211649
-0.0470542 -0.0164406 -0.0236216
-0.041385 0.0302356 -0.0120942
-0.0313695 -0.0102045 -0.0391173
Vibration 2
-0.0134171 -0.00718096 -0.00548021
-0.0134171 -0.00718096 -0.00831479
-0.0134171 -0.00699199 -0.0103935
-0.0134171 -0.00718096 -0.00907068
-0.0134171 -0.00718096 -0.00812582
-0.0134171 -0.00718096 -0.00718096
-0.0141729 -0.00793685 -0.00680301
-0.0134171 -0.00736993 -0.00718096
-0.0134171 -0.00812582 -0.00831479
-0.0132281 -0.00793685 0.00188973
-0.0177634 -0.0120942 0.0041574
-0.0156847 -0.0141729 0.013795
-0.00888171 -0.0119053 0.020976
-0.00529123 -0.00680301 0.0177634
-0.0075589 -0.00491329 0.00831479
-0.00604712 -0.0153068 0.0311805
-0.013795 -0.00718096 -0.013795
-0.0119053 -0.00831479 -0.013984
-0.0124722 -0.00793685 -0.0185193
-0.0149288 -0.00642507 -0.0224877
-0.0166296 -0.00548021 -0.0221098
-0.0160627 -0.00585815 -0.0177634
-0.0154958 -0.00585815 -0.027401
0.00170075 -0.0141729 0.0402512
-0.00925966 -0.00188973 0.00226767
0 0.0126612 0.0111494
0.0232436 0.0234326 0.00982658
0.0423299 0.0132281 -0.00113384
0.0419519 -0.0117163 -0.00982658
0.0258892 0.0455424 0.0188973
0.047999 0.0578256 0.0164406
0.0672742 0.048188 0.00491329
0.0642507 0.0258892 -0.00340151
0.0211649 -0.0158737 -0.0164406
-0.0107714 0.0171965 0.0185193
-0.0141729 -0.00604712 0.00604712
-0.0132281 -0.00699199 -0.00812582
0.0196532 -0.0330702 -0.0219208
-0.0230547 -0.013795 -0.00151178
-0.0190862 -0.0175745 0.0158737
-0.000944863 -0.00453534 0.0228657
-0.00453534 -0.00132281 0.00604712
-0.0102045 -0.00944863 -0.0107714
-0.0109604 -0.00888171 -0.0185193
-0.0185193 -0.00453534 -0.0251334
-0.0177634 -0.00491329 -0.0173855
-0.0187083 -0.0062361 -0.0281569
-0.0132281 -0.00529123 -0.0285349
-0.0149288 -0.00548021 -0.0291018
0.0062361 -0.0202201 0.0502667
-0.00302356 -0.0196532 0.0381725
0.0075589 -0.00264562 0.0393063
0.0109604 0.0532903 0.02759
0.0500777 0.0748331 0.0239995
0.0844708 0.0578256 0.00302356
0.0793685 0.0177634 -0.0117163
-0.020787 -0.0145509 0.000566918
Vibration 3
-0.00245664 0.00188973 -0.0232436
-0.00245664 -0.00245664 -0.020976
0.00151178 -0.00472431 -0.0145509
0.00566918 -0.00264562 -0.0122832
0.00548021 0.00151178 -0.0149288
0.00170075 0.00396842 -0.0232436
0.0100155 0.00264562 -0.00245664
0.00226767 0.00907068 -0.0291018
0.00283459 0.0147399 -0.034582
-0.00377945 0.00245664 -0.0170075
-0.0062361 -0.00453534 -0.0119053
0.00170075 -0.0103935 0.00340151
0.0122832 -0.00944863 0.013795
0.0102045 0.000566918 0.00566918
0.0020787 0.00642507 -0.0100155
0.0243775 -0.0190862 0.0325033
0.00264562 -0.0117163 -0.00302356
0.00396842 -0.0228657 0.0145509
0.00661404 -0.0328812 0.0321253
0.00774788 -0.0315584 0.0315584
0.00604712 -0.0198421 0.0124722
0.00340151 -0.00982658 -0.00491329
0.0109604 -0.0438416 0.0531013
0.0462983 -0.0266451 0.0531013
0.00340151 0.00869274 0.00491329
-0.0128501 0.0162516 -0.00396842
-0.0145509 0.0187083 -0.00907068
-0.0179524 0.0241885 -0.0130391
-0.0179524 0.0294797 -0.0100155
-0.0151178 0.0143619 -0.00888171
-0.0190862 0.0149288 -0.0134171
-0.0222988 0.020976 -0.0187083
-0.0217318 0.0257003 -0.0187083
-0.0134171 0.0181414 0.00585815
-0.0253223 0.0179524 -0.00718096
0.0107714 0.00831479 0.0234326
-0.00529123 -0.0041574 -0.0217318
-0.0130391 0.0192752 0.00982658
-0.0132281 -0.00604712 -0.0192752
0.000944863 -0.0166296 0.00831479
0.0154958 0.00340151 0.0115273
0.00151178 0.0134171 -0.0158737
0.00340151 -0.0232436 0.0145509
0.0075589 -0.041385 0.0459203
0.00661404 -0.0183303 0.0111494
0.00226767 -0.000566918 -0.0196532
0.0260782 -0.0519675 0.0587705
-0.00453534 -0.0445975 0.0651955
0.013606 -0.0451645 0.0542351
0.0629279 -0.041196 0.0738883
0.0302356 -0.0453534 0.0514005
0.061983 0 0.0502667
-0.0124722 0.0096376 -0.00491329
-0.0194642 0.0107714 -0.0128501
-0.0253223 0.0213539 -0.0222988
-0.0241885 0.0302356 -0.0222988
0.020409 0.00245664 0.0287238
Vibration 4
-0.0190862 0.0164406 0.00642507
-0.0190862 0.0100155 0.0109604
-0.0126612 0.0062361 0.0107714
-0.00774788 0.00907068 0.0096376
-0.0075589 0.0153068 0.00869274
-0.013795 0.0188973 0.00888171
-0.00075589 0.0196532 0.00377945
-0.0134171 0.0253223 0.0102045
-0.0130391 0.0304246 0.0113384
-0.0179524 0.0164406 -0.00529123
-0.0122832 0.0285349 -0.013984
0.00434637 0.0196532 -0.0198421
0.0153068 -0.00188973 -0.0164406
0.00359048 -0.0102045 -0.0128501
-0.0134171 -0.000377945 -0.00718096
0.0381725 -0.0128501 -0.0187083
-0.0126612 -0.00188973 0.00604712
-0.00661404 0.0107714 -0.0236216
-0.00718096 0.00377945 -0.0334482
-0.0134171 -0.0168186 -0.0124722
-0.0188973 -0.0309915 0.0190862
-0.0183303 -0.0232436 0.0281569
-0.0143619 -0.0241885 -0.0245664
0.0710537 -0.0506447 0.000377945
0.0062361 0.0141729 -0.00245664
0.00736993 0.00113384 -0.00472431
0.00604712 -0.00566918 0.00529123
0.00548021 -0.00982658 0.0126612
0.00548021 -0.0096376 0.0126612
0.00585815 -0.00680301 0.00548021
0.00510226 -0.0117163 0.0134171
0.00453534 -0.0160627 0.0213539
0.00472431 -0.0151178 0.020976
0.00548021 -0.00396842 0.00585815
0.00925966 -0.00226767 -0.0147399
0.0141729 0.0213539 -0.00869274
-0.0243775 0.00680301 0.0124722
0.00548021 -0.00396842 0.00585815
-0.0192752 0.0440306 -0.0149288
0.0103935 0.0279679 -0.0253223
0.00774788 -0.0241885 -0.0134171
-0.0219208 -0.00736993 -0.00359048
-0.00151178 0.0258892 -0.0387394
-0.00264562 0.0141729 -0.0570697
-0.0236216 -0.0472432 0.0360938
-0.0222988 -0.0340151 0.0512116
-0.0232436 -0.0389284 -0.0251334
-0.0122832 -0.0183303 -0.0187083
-0.00850377 -0.0215429 -0.0404401
0.0980768 -0.061983 0.00548021
0.0455424 -0.0808803 0.0164406
0.0944863 -0.0366607 -0.0075589
0.00642507 -0.00340151 -0.000944863
0.00510226 -0.0122832 0.0132281
0.00396842 -0.0194642 0.027401
0.0041574 -0.0179524 0.0266451
0.0132281 0.0302356 -0.00793685
Vibration 5
-0.00359048 0.00604712 -0.00340151
-0.00359048 0.00529123 -0.0124722
-0.0041574 0.00548021 -0.00529123
-0.00302356 0.00548021 0.00132281
-0.00321253 0.00585815 0.00359048
-0.00321253 0.00604712 0.0075589
-0.00226767 0.00699199 -0.00151178
-0.00377945 0.00472431 0.0224877
-0.00453534 0.0020787 0.0357158
-0.00510226 0.00699199 -0.00604712
-0.0302356 0.0241885 -0.0253223
-0.0308025 0.0245664 -0.0262672
-0.00510226 0.00774788 -0.00736993
0.0190862 -0.00850377 0.0107714
0.0187083 -0.00812582 0.0111494
-0.00718096 0.00925966 -0.0100155
-0.0041574 0.00510226 -0.00377945
0.00113384 -0.0308025 0.0529123
0.00188973 -0.0321253 0.0591484
-0.0041574 0.00453534 0.0062361
-0.0105825 0.0421409 -0.0531013
-0.0109604 0.041574 -0.0572587
-0.00321253 0.0041574 0.0141729
0.0281569 -0.0147399 0.0181414
0.00075589 0.00188973 -0.00812582
0.0041574 -0.00736993 -0.00812582
0.00510226 -0.0115273 -0.00113384
0.00661404 -0.0164406 0.00472431
0.00642507 -0.020787 0.00680301
0.00529123 -0.00888171 -0.0020787
0.00718096 -0.0102045 0.00188973
0.00869274 -0.0147399 0.00718096
0.00850377 -0.0181414 0.00888171
0.00548021 -0.0103935 -0.00604712
0.00604712 -0.0096376 -0.0143619
0.00170075 0.00491329 -0.0168186
-0.00283459 0.00566918 -0.0243775
0.00548021 -0.0107714 -0.00642507
-0.0493218 0.0368497 -0.0387394
-0.0502667 0.0374166 -0.0406291
0.0376055 -0.020787 0.0241885
0.0370386 -0.0200311 0.0247554
0.00472431 -0.0568808 0.0907068
0.00680301 -0.0608492 0.104124
-0.0153068 0.0702978 -0.0942973
-0.0170075 0.0704868 -0.100533
0.00377945 0.013606 0.0151178
-0.00831479 -0.00245664 0.0103935
-0.00396842 0.000566918 0.0260782
0.0268341 -0.013795 0.0170075
0.0194642 -0.0255113 0.0534792
0.062172 -0.0215429 0.00302356
0.0041574 -0.00529123 -0.0062361
0.00736993 -0.00774788 0.00113384
0.0102045 -0.0151178 0.00944863
0.00944863 -0.0217318 0.0130391
0 0.0115273 -0.0168186
Vibration 6
-0.00793685 0.00604712 0.00377945
-0.0075589 0.00548021 0.0096376
-0.00680301 0.00453534 0.00850377
-0.00434637 0.00548021 0.00944863
-0.00453534 0.00661404 0.00434637
-0.00604712 0.00736993 -0.00226767
-0.00264562 0.00793685 0.00302356
-0.00529123 0.0126612 -0.0179524
-0.0041574 0.0198421 -0.0325033
-0.0041574 0.00434637 0.00302356
0.0432747 -0.0217318 0.034204
0.05518 -0.0285349 0.0364717
0.0173855 -0.0096376 0.00699199
-0.0325033 0.0170075 -0.0253223
-0.0425188 0.0230547 -0.0268341
0.0362827 -0.020598 0.0145509
-0.00699199 0.000944863 0.00188973
0.00302356 -0.0219208 0.0300466
0.00226767 -0.0251334 0.020976
-0.00982658 -0.00359048 -0.0177634
-0.020598 0.0194642 -0.0464873
-0.0194642 0.0213539 -0.0359048
-0.0109604 -0.00529123 -0.0289128
-0.00340151 -0.000188973 -0.0198421
0.00340151 0.00642507 0.00170075
0.00869274 0.000566918 0.00377945
0.00321253 -0.00264562 0.00529123
0 0 0.00585815
0 0.00472431 0.00377945
0.00283459 -0.00831479 0.00604712
-0.00113384 -0.0111494 0.00774788
-0.00472431 -0.00869274 0.00850377
-0.00396842 -0.00302356 0.00736993
0.000377945 -0.00736993 0.0179524
0.0171965 -0.00113384 0.00453534
0.00680301 0.0100155 -0.00264562
-0.00718096 0.00566918 0.0141729
0.000377945 -0.00925966 0.0200311
0.0718096 -0.0364717 0.0559359
0.0931635 -0.048377 0.0602823
-0.061983 0.0319364 -0.048377
-0.0797464 0.0417629 -0.0502667
0.0117163 -0.0368497 0.0578256
0.0109604 -0.0432747 0.0430858
-0.0300466 0.0355268 -0.075778
-0.0287238 0.0394953 -0.0566918
-0.0188973 0.00434637 -0.0325033
-0.00812582 -0.0120942 -0.0400622
-0.00680301 -0.00907068 -0.0226767
0.0171965 -0.0113384 -0.0100155
-0.00529123 -0.00188973 -0.0735103
-0.0468652 0.0253223 0.0020787
0.00548021 -0.0102045 0.00548021
-0.00151178 -0.0153068 0.00850377
-0.00793685 -0.0107714 0.0096376
-0.00661404 -0.00075589 0.0075589
0.00377945 0.013795 -0.00396842
Vibration 7
-0.00642507 -0.00283459 -0.0173855
-0.00642507 -0.00434637 -0.0107714
-0.00548021 -0.00472431 -0.000566918
-0.00585815 -0.00510226 0.00548021
-0.00566918 -0.00359048 -0.00245664
-0.0062361 -0.00245664 -0.0190862
-0.00226767 -0.00188973 0.00226767
-0.00529123 0.000566918 -0.0419519
-0.00396842 0.0062361 -0.0659514
-0.0102045 -0.00075589 -0.0156847
-0.0255113 0 -0.0194642
-0.0285349 0.00075589 -0.0105825
-0.0143619 0.000377945 0.00264562
-0.000944863 0.00132281 0.00510226
0.00075589 0.000944863 -0.00434637
-0.0160627 -0.00075589 0.0126612
-0.00566918 0.00283459 0.00472431
-0.0164406 0.0130391 0.000188973
-0.0175745 0.027779 -0.00113384
-0.00774788 0.0317474 0.00264562
0.00377945 0.0200311 0.0102045
0.00472431 0.00529123 0.0113384
-0.00925966 0.0500777 -0.00151178
0.0117163 -0.0102045 0.0387394
0.0149288 -0.00170075 0.00472431
0.0370386 -0.00831479 0.0181414
0.013606 -0.00812582 0.00132281
0.00245664 0.00132281 0.00264562
0.00151178 -0.00377945 0.0219208
0.0126612 -0.0153068 -0.0170075
0.000188973 -0.0119053 -0.0330702
-0.0113384 -0.00151178 -0.034204
-0.0096376 0.0062361 -0.0171965
0.000944863 -0.0614161 0.0884392
0.0769118 -0.0100155 0.041385
0.020598 0.00491329 -0.00510226
-0.00736993 -0.00472431 -0.0130391
0.000377945 -0.0865495 0.115084
-0.0349599 -0.000566918 -0.0285349
-0.0402512 0.000944863 -0.0132281
0.00793685 0.00245664 0.013984
0.0113384 0.00188973 -0.00283459
-0.0241885 0.00982658 -0.00283459
-0.0262672 0.0359048 -0.00548021
0.0119053 0.0222988 0.0147399
0.013795 -0.00359048 0.0168186
-0.00982658 0.0468652 -0.00113384
0.00245664 0.0610381 0.00283459
-0.0213539 0.0576366 -0.00925966
0.0149288 -0.0166296 0.0510226
0.00226767 -0.0215429 0.0546131
0.0368497 0.000377945 0.0298577
0.0215429 -0.0219208 -0.0185193
-0.00113384 -0.0173855 -0.0455424
-0.0217318 0.00113384 -0.047999
-0.0187083 0.0151178 -0.0188973
0.00869274 0.00982658 -0.0119053
Vibration 8
-0.0041574 0.00585815 0.0153068
-0.00396842 0.00925966 0.000566918
-0.00566918 0.0100155 -0.0103935
-0.00718096 0.00944863 -0.0156847
-0.00699199 0.00642507 0.00075589
-0.00566918 0.00453534 0.0236216
-0.0120942 0.00453534 -0.00925966
-0.00661404 0.00340151 0.055369
-0.00812582 0.000188973 0.0820141
0.00113384 0.00302356 0.0147399
0.0175745 0.00188973 0.0188973
0.0236216 -0.00075589 0.0115273
0.0117163 -0.00245664 -0.000188973
-0.00359048 -0.00283459 -0.00359048
-0.00831479 -0.000377945 0.00434637
0.0175745 -0.00377945 -0.00812582
-0.00566918 0.0062361 -0.0107714
-0.00264562 0.00340151 -0.0096376
0 -0.0105825 0.00529123
-0.00075589 -0.0215429 0.0185193
-0.00491329 -0.0149288 0.0117163
-0.0075589 -0.00075589 -0.00340151
0.00321253 -0.0421409 0.0425188
-0.0041574 0.00075589 -0.0300466
-0.0096376 -0.000188973 -0.0154958
0.0102045 0.00132281 -0.00188973
0.0020787 0.0075589 -0.0175745
0.00170075 0.00642507 -0.0153068
0.000566918 -0.0134171 0.00604712
0.00245664 0.0177634 -0.0366607
0.00321253 0.0285349 -0.0548021
0.00321253 0.0296687 -0.0563138
0.00264562 0.0188973 -0.0360938
-0.00472431 -0.041385 0.0355268
0.0362827 0.00264562 0.020787
-0.0251334 -0.00453534 -0.0353379
-0.0020787 0.0102045 -0.00132281
-0.00491329 -0.0625499 0.0538572
0.0257003 0.00377945 0.0272121
0.0366607 -0.00113384 0.0145509
-0.0113384 -0.00491329 -0.0117163
-0.0202201 -0.00113384 0.00245664
-0.00170075 0.0107714 -0.0185193
0.00264562 -0.013795 0.0075589
-0.00604712 -0.0211649 0.0188973
-0.0103935 0.00396842 -0.00812582
0.0187083 -0.0517785 0.048377
-0.0175745 -0.0461093 0.054991
0.0111494 -0.0461093 0.0445975
-0.0020787 0.0041574 -0.0389284
0.000377945 0.0062361 -0.0447865
-0.0251334 -0.00453534 -0.0219208
0.00264562 0.0183303 -0.0374166
0.00340151 0.0364717 -0.0684081
0.00321253 0.0381725 -0.0714316
0.00245664 0.0187083 -0.0359048
-0.0370386 -0.00321253 -0.0427078
Vibration 9
-0.0096376 -0.00529123 -0.0266451
-0.00888171 -0.00888171 -0.0440306
-0.00491329 -0.0115273 -0.0325033
-0.00264562 -0.0105825 -0.0217318
-0.0020787 -0.00585815 -0.0107714
-0.0062361 -0.00321253 -0.00453534
0.0105825 0 0.00075589
-0.00680301 0.00283459 0.0304246
-0.00793685 0.00680301 0.062361
-0.0122832 -0.00396842 -0.0224877
0.00245664 -0.0222988 -0.00472431
0.00548021 -0.0253223 0.00604712
-0.00793685 -0.0100155 -0.00170075
-0.0264562 0.0100155 -0.0217318
-0.0279679 0.0113384 -0.0315584
-0.000188973 -0.0168186 0.0134171
-0.00434637 -0.0041574 -0.020409
-0.0219208 0.00642507 -0.0170075
-0.0213539 0.020976 -0.00075589
-0.00226767 0.0238105 0.0130391
0.0158737 0.0134171 0.0102045
0.0145509 -0.000566918 -0.00680301
-0.000944863 0.0393063 0.0332592
-0.00944863 -0.00377945 0.00907068
0.0228657 0.00491329 0.00907068
0.00453534 -0.00075589 -0.00491329
0.0062361 -0.00340151 0.000188973
0.00529123 -0.0147399 0.0188973
0.00491329 -0.0215429 0.0357158
0.00604712 0.00566918 -0.0156847
0.00566918 0.00340151 -0.0120942
0.00529123 -0.00831479 0.00793685
0.00472431 -0.0177634 0.0238105
0.0120942 0.0153068 -0.00321253
-0.0128501 -0.0020787 -0.0224877
0.0542351 0.0188973 0.0334482
-0.0113384 -0.0103935 -0.0612271
0.0128501 0.0188973 0.00132281
0.0122832 -0.034582 0.000188973
0.0188973 -0.0393063 0.0202201
-0.0387394 0.0234326 -0.0285349
-0.0408181 0.0243775 -0.0447865
-0.0364717 0.00340151 -0.0264562
-0.0359048 0.0291018 0.00151178
0.0308025 0.0158737 0.020787
0.0289128 -0.00869274 -0.00888171
0.0168186 0.0260782 0.0402512
-0.000377945 0.055369 0.0534792
-0.0177634 0.0495108 0.0236216
0.00302356 -0.0153068 0.0262672
-0.0143619 -0.00925966 -0.0177634
-0.0221098 0.0211649 0.0179524
0.00642507 0.0143619 -0.0311805
0.00585815 0.0103935 -0.0247554
0.00548021 -0.0102045 0.0115273
0.00396842 -0.0270231 0.0396842
0.0657625 0.0224877 0.041385
Vibration 10
0.00699199 0.00529123 -0.0192752
0.00661404 0.0122832 -0.0221098
0.00113384 0.0156847 -0.0190862
-0.0041574 0.0126612 -0.00774788
-0.00434637 0.00548021 -0.00736993
0.00132281 0.0020787 -0.0171965
-0.0160627 -0.000377945 -0.00434637
0.00113384 -0.00548021 -0.027779
0.00132281 -0.0109604 -0.0385504
0.0109604 0.00302356 -0.013984
0.00566918 -0.000944863 -0.0115273
0.00377945 -0.00075589 -0.00359048
0.00718096 0.00453534 0.00132281
0.0145509 0.00774788 0.000566918
0.0164406 0.00680301 -0.00699199
0.00226767 0.00585815 0.00812582
0.00075589 0.0151178 -0.0234326
0.00604712 0.0130391 -0.0266451
0.00850377 -0.00302356 -0.013984
0.0062361 -0.0171965 0.00226767
-0.000377945 -0.00907068 -0.00453534
-0.00283459 0.00774788 -0.0179524
0.0109604 -0.0444086 0.0296687
-0.0102045 0.0230547 0.00226767
-0.0202201 0.000944863 -0.0041574
0.00075589 0.00566918 0.0102045
-0.00434637 0.00510226 0.00793685
-0.0041574 -0.0236216 0.0525344
-0.00548021 -0.0470542 0.076156
-0.00396842 0.0266451 -0.0264562
-0.00188973 0.0170075 -0.00774788
-0.00075589 -0.0153068 0.0453534
-0.0020787 -0.0353379 0.0742662
-0.00604712 0.0173855 -0.000566918
0.0258892 0.0062361 0.0315584
-0.041574 -0.00944863 -0.0202201
0.0107714 0.0147399 -0.0257003
-0.0062361 0.00944863 0.00699199
0.0020787 -0.00453534 -0.0160627
-0.00075589 -0.0041574 -0.00188973
0.0188973 0.0105825 0.00566918
0.0222988 0.00982658 -0.00812582
0.00869274 0.0221098 -0.0360938
0.0128501 -0.00566918 -0.0141729
-0.00359048 -0.0166296 0.00264562
-0.00736993 0.0132281 -0.0224877
0.0281569 -0.0523454 0.0357158
-0.0147399 -0.0529123 0.0410071
0.0230547 -0.0514005 0.0357158
-0.0213539 0.0264562 0.00283459
-0.000188973 0.0349599 -0.00510226
-0.0188973 0.0200311 0.00548021
-0.00472431 0.0514005 -0.0657625
-0.00113384 0.0338261 -0.0330702
0.000944863 -0.0245664 0.0631168
-0.0020787 -0.0599043 0.113195
-0.0525344 -0.0141729 -0.027779
Vibration 11
0.00585815 0.00264562 -0.0253223
0.0062361 0.0041574 -0.0396842
0.00604712 0.0041574 -0.0228657
0.00510226 0.00359048 -0.00151178
0.00566918 0.0020787 0.00453534
0.0062361 0.00188973 -0.00113384
-0.00377945 -0.00245664 0.00888171
0.00566918 0.00585815 0.0196532
0.00529123 0.0115273 0.0387394
0.00188973 0.00529123 -0.0247554
0.00680301 -0.00925966 -0.0117163
0.00113384 -0.00718096 -0.00264562
-0.00888171 0.0096376 -0.00642507
-0.0175745 0.0268341 -0.0217318
-0.0117163 0.0234326 -0.0306136
-0.0113384 0.00850377 0.00680301
0.0062361 0.00642507 -0.0230547
0.00359048 0.0103935 -0.0260782
0.00472431 0.00812582 -0.0162516
0.0102045 0.00075589 -0.00188973
0.0126612 0 -0.00359048
0.0111494 0.00340151 -0.0147399
0.0128501 -0.00736993 0.0179524
0.0168186 0.00226767 0.0351489
-0.0185193 -0.00736993 -0.000188973
-0.00151178 -0.00396842 0.0119053
-0.00170075 -0.00472431 0.0132281
0 0.0113384 -0.013984
0.00170075 0.0351489 -0.0555579
-0.00151178 -0.0255113 0.0493218
-0.00151178 -0.0323143 0.0614161
-0.00132281 -0.0177634 0.0360938
0.000188973 0.00548021 -0.00377945
-0.00888171 -0.0291018 0.013984
0.013795 -0.00359048 0.0253223
-0.048566 -0.020976 -0.0232436
0.00642507 0.0041574 -0.0597153
-0.00944863 -0.0217318 -0.00604712
0.0158737 -0.0234326 -0.00812582
0.00548021 -0.0187083 0.00774788
-0.0285349 0.0425188 -0.0268341
-0.0166296 0.0353379 -0.041196
0.000377945 0.0143619 -0.034204
0.00188973 0.0107714 -0.0177634
0.0160627 -0.00396842 0.00472431
0.0141729 0.0020787 -0.0158737
0.0279679 -0.0232436 0.0247554
0.000944863 -0.00113384 0.0364717
0.0120942 -0.00453534 0.0105825
0.0309915 -0.0134171 0.0600933
0.00075589 -0.0166296 0.0372276
0.0389284 0.0309915 0.0300466
-0.00226767 -0.0372276 0.0695419
-0.00226767 -0.0491329 0.0905179
-0.00170075 -0.0232436 0.0455424
0.00132281 0.0187083 -0.0268341
-0.0597153 -0.0253223 -0.0309915
Vibration 12
-0.00661404 0.00491329 -0.0062361
-0.00699199 0.0096376 -0.0132281
-0.0117163 0.0122832 -0.0185193
-0.0162516 0.00869274 -0.0153068
-0.0170075 0.00491329 -0.0102045
-0.0124722 0.00226767 -0.00680301
-0.0102045 0.00812582 -0.00566918
-0.0130391 -0.00907068 -0.00548021
-0.013984 -0.0222988 -0.00472431
0.00396842 -0.00170075 0.00245664
-0.00774788 0.00736993 -0.0075589
0.00359048 0.000377945 -0.00075589
0.0255113 -0.0143619 0.0153068
0.0432747 -0.0270231 0.0291018
0.0321253 -0.0198421 0.0224877
0.0321253 -0.0187083 0.0194642
-0.0124722 0.0145509 -0.0228657
-0.0119053 0.0147399 -0.0241885
-0.0102045 0.00548021 -0.0126612
-0.00925966 -0.00434637 0.00075589
-0.0115273 0.00170075 -0.00718096
-0.0132281 0.0113384 -0.0192752
-0.00510226 -0.0238105 0.0270231
-0.0366607 0.0266451 -0.0359048
0.0105825 0.0126612 0.00321253
0.00699199 0.00453534 -0.00132281
0.00529123 -0.000566918 0.00548021
0.00302356 0.0103935 -0.00812582
0.0041574 0.0279679 -0.0291018
0.00510226 -0.0170075 0.0260782
0.000944863 -0.0241885 0.0349599
-0.00226767 -0.013606 0.0217318
-0.00075589 0.00434637 -0.00132281
0.00075589 -0.0202201 0.0260782
0.00283459 0.0020787 -0.0130391
0.0394953 0.0279679 0.0173855
-0.00377945 0.0115273 -0.013984
0.000377945 -0.0185193 0.0192752
-0.0266451 0.020409 -0.020976
-0.00642507 0.00736993 -0.00850377
0.0663294 -0.0427078 0.0455424
0.0449755 -0.0283459 0.0321253
-0.0122832 0.0198421 -0.0313695
-0.00888171 0.00396842 -0.0115273
-0.0113384 -0.00264562 -0.00170075
-0.0149288 0.0147399 -0.0234326
0.0124722 -0.0311805 0.0332592
-0.0264562 -0.0291018 0.0389284
0.0020787 -0.0285349 0.0321253
-0.0668963 0.0478101 -0.0610381
0 0.0702978 -0.068975
-0.0924076 -0.00472431 -0.0171965
0.00718096 -0.0253223 0.0360938
0.000188973 -0.0376055 0.0517785
-0.00548021 -0.0188973 0.0281569
-0.00264562 0.0141729 -0.013984
0.041385 0.0340151 0.0196532
Vibration 13
-0.00925966 0.00396842 -0.0257003
-0.00869274 -0.00736993 -0.0245664
0.00264562 -0.0143619 0.00151178
0.0120942 -0.00812582 0.0100155
0.0132281 0.00245664 0.00188973
0.0020787 0.00869274 -0.00793685
0.0122832 0.00226767 0.00264562
0.00283459 0.0317474 0.00831479
0.0041574 0.0599043 0.0234326
-0.0132281 0.0062361 -0.0279679
-0.0272121 0.00831479 -0.0328812
-0.0103935 -0.00340151 -0.0124722
0.0185193 -0.0154958 0.0109604
0.0253223 -0.0122832 0.0100155
0.00944863 -0.00170075 -0.00925966
0.0474321 -0.0364717 0.0432747
0.00434637 -0.0224877 0.0194642
0.000188973 -0.0222988 0.0241885
-0.00132281 -0.0100155 0.0170075
0.00170075 0.00188973 0.00491329
0.00888171 -0.0105825 0.0181414
0.0105825 -0.0230547 0.0257003
-0.00453534 0.0325033 -0.0338261
-0.0351489 0.0268341 -0.0188973
-0.00736993 -0.00302356 -0.00680301
-0.00170075 0.00264562 -0.00151178
-0.00226767 0.00359048 -0.00283459
-0.0020787 0.000566918 0.00132281
-0.00226767 -0.0020787 0.00264562
-0.00226767 0.00510226 -0.0041574
-0.00151178 0.00340151 -0.000377945
-0.00113384 0.000188973 0.00434637
-0.00132281 -0.00113384 0.00491329
-0.00302356 0.00132281 -0.00226767
0.00510226 0.00377945 0.00774788
-0.0359048 -0.0171965 -0.0238105
-0.0173855 -0.0126612 -0.0391173
-0.00302356 0.00151178 -0.00188973
-0.0500777 0.0179524 -0.0510226
-0.0185193 -0.00359048 -0.013795
0.0468652 -0.020976 0.02759
0.0171965 -0.00113384 -0.00793685
-0.00283459 -0.0279679 0.0291018
-0.0062361 -0.00661404 0.0166296
0.0132281 -0.00774788 0.0185193
0.0162516 -0.0306136 0.0323143
-0.0434637 0.146454 -0.061794
0.0253223 -0.0253223 -0.135115
-0.00132281 0.00283459 0.0531013
-0.0474321 0.0317474 -0.020598
-0.00566918 0.062361 -0.089762
-0.109037 0.0300466 0.0124722
-0.00264562 0.00793685 -0.00793685
-0.00151178 0.00434637 -0.00113384
-0.00075589 -0.00151178 0.00774788
-0.00075589 -0.00359048 0.00831479
-0.0406291 -0.0221098 -0.02759
Vibration 14
0.00283459 -0.000944863 0.00132281
0.00245664 0.00396842 0.00132281
-0.00188973 0.00680301 -0.00453534
-0.0062361 0.0041574 -0.0096376
-0.00699199 -0.000188973 -0.00793685
-0.0020787 -0.00302356 -0.00245664
-0.00642507 -0.000188973 -0.00869274
-0.00283459 -0.0147399 0.00075589
-0.0041574 -0.0304246 0.00491329
0.00510226 -0.00245664 0.00340151
0.0103935 -0.00642507 0.00774788
0.00453534 -0.00283459 0.00377945
-0.00585815 0.0041574 -0.00377945
-0.00793685 0.00585815 -0.00548021
-0.00264562 0.00245664 -0.0020787
-0.0171965 0.0113384 -0.0117163
-0.00188973 0.00907068 -0.00359048
-0.00151178 0.00982658 -0.00661404
0.000377945 0.0041574 0.000566918
0.000566918 -0.00170075 0.0096376
-0.00132281 -0.000566918 0.00793685
-0.00170075 0.00453534 0.00170075
0 -0.0124722 -0.00075589
0.0145509 -0.00869274 0.0143619
0.00340151 0.00377945 -0.00226767
0.00283459 0.00377945 -0.00302356
0.00151178 0.00302356 -0.00264562
0.000566918 0.00264562 -0.000566918
0.00075589 0.00548021 -0.00359048
0.00151178 0.00132281 -0.00226767
0.000188973 -0.0020787 0.00264562
-0.00113384 -0.00359048 0.00661404
-0.00075589 -0.00075589 0.00434637
-0.000377945 -0.00434637 0.00736993
0.00226767 0.00340151 -0.0041574
0.0153068 0.00925966 0.00585815
0.00604712 0.00604712 0.00585815
-0.000377945 -0.00453534 0.00604712
0.0185193 -0.0119053 0.0134171
0.00774788 -0.00491329 0.0062361
-0.0151178 0.0109604 -0.0107714
-0.00529123 0.0041574 -0.0041574
-0.00151178 0.0145509 -0.0128501
-0.000188973 0.00491329 0
-0.000188973 -0.00283459 0.0119053
-0.00245664 0.00472431 0.0020787
-0.0591484 0.39552 -0.0776677
-0.0134171 -0.280246 -0.337694
0.068975 -0.163272 0.372654
0.0113384 -0.00736993 0.013795
0.00736993 -0.0175745 0.0462983
0.0459203 -0.0147399 0.000377945
0.00226767 0.00226767 -0.00510226
0 -0.00396842 0.00340151
-0.0020787 -0.00661404 0.0111494
-0.00151178 -0.00132281 0.00604712
0.0158737 0.0100155 0.0062361
Vibration 15
-0.000188973 -0.00925966 0.0130391
0 -0.0130391 0.0185193
0.00188973 -0.0145509 -0.0062361
0.00548021 -0.0111494 -0.0410071
0.00529123 -0.00548021 -0.0387394
0.00359048 -0.00661404 -0.0096376
0.00793685 -0.00472431 -0.048566
0.00321253 -0.00774788 0.00472431
0.00226767 -0.0119053 0.0202201
-0.00075589 -0.0102045 0.0188973
0.00264562 -0.00699199 0.0164406
-0.00075589 -0.00377945 0.00585815
-0.00718096 -0.0062361 -0.000944863
-0.00566918 -0.013606 0.00491329
-0.00302356 -0.0151178 0.0145509
-0.0158737 0.00132281 -0.0187083
0.00321253 -0.0190862 0.00661404
-0.00188973 -0.0213539 0.0166296
-0.00283459 -0.0117163 0.0147399
0.00075589 0.00113384 0.00132281
0.0075589 -0.00472431 0.00359048
0.00831479 -0.0154958 0.00699199
-0.00283459 0.0258892 -0.0171965
0.00359048 -0.0217318 -0.00793685
0.00831479 0.00831479 -0.0308025
0.00982658 0.0389284 -0.0239995
0.00396842 0.0419519 -0.0302356
-0.00321253 0.0292908 0
-0.00264562 0.047999 -0.0234326
0.00302356 0.0366607 -0.0340151
-0.00472431 0.00359048 0.0164406
-0.0120942 -0.0202201 0.0674632