[Molden Format]
[FREQ]
13.4
22.8
25.1
30.9
35.4
40.2
42.9
50.6
54.5
69.3
72.1
83.8
92.3
97.5
111.3
119.5
130.8
135.5
144.1
154.1
166.9
179.5
193.0
203.7
208.8
227.4
237.8
249.7
262.4
300.5
310.8
314.4
328.4
345.7
356.9
358.5
359.7
363.4
392.6
401.5
433.6
444.2
465.5
467.5
479.9
499.6
513.3
520.7
527.7
543.2
561.3
573.8
597.2
608.5
613.7
616.1
629.0
649.0
661.4
663.9
703.2
709.2
725.2
756.3
771.1
773.0
791.5
837.7
843.5
883.8
886.8
895.7
898.8
903.4
939.6
953.0
970.5
977.3
1004.6
1007.0
1008.9
1015.4
1016.3
1019.2
1034.9
1044.9
1060.9
1075.1
1081.7
1094.9
1111.6
1129.8
1174.6
1175.5
1177.5
1180.2
1182.1
1188.4
1211.3
1226.9
1238.4
1262.5
1268.0
1269.7
1274.4
1277.2
1283.9
1286.9
1298.0
1304.3
1322.2
1324.5
1333.6
1339.3
1346.1
1351.8
1353.9
1365.5
1371.8
1385.8
1391.5
1403.7
1414.7
1450.4
1476.1
1496.0
1517.8
1525.4
1526.9
1572.4
1589.9
1593.6
1602.7
1653.3
1685.2
1696.7
1697.3
1705.0
1708.1
1712.6
1739.8
1763.6
2275.7
2448.9
2652.4
2655.1
2667.8
2674.4
2738.5
2740.1
2743.1
2745.9
2747.8
2750.9
2753.0
2754.2
2763.3
2765.0
2766.2
2767.1
2767.8
2770.6
2780.0
2783.5
2785.4
       
[FR-COORD]
C -2.09703 -3.43836 0.632869
C 0.653845 -3.43836 0.632869
C 1.51216 -0.995508 0.632869
N -0.722064 3.22501 0.703923
C -0.681435 0.691451 0.643452
C -2.91131 -0.959414 0.6015
N -2.81418 4.44067 0.990783
C -5.43372 -0.131336 0.485093
N -7.53075 0.490762 0.360938
C -3.60598 -5.71812 0.661593
C -2.80983 -7.84425 -0.714316
C -4.21069 -10.0532 -0.682002
C -6.44208 -10.1333 0.75778
C -7.27545 -8.04362 2.12991
C -5.84209 -5.83812 2.06434
O -7.61597 -12.4121 0.639294
C 4.1642 -0.291963 0.486226
C 5.52594 0.368686 2.64599
C 8.07083 1.0076 2.4506
C 9.26986 0.984547 0.0999665
C 7.91682 0.269853 -2.05394
C 5.37835 -0.378323 -1.86025
C 11.9877 1.68658 -0.130202
C -9.90009 -12.6967 2.02276
C -0.15458 4.30763 -4.78913
C -3.56194 6.57398 -0.267207
C 1.60797 4.68728 0.846786
C 2.90319 5.39536 -1.3504
C 2.17262 4.67405 -3.87658
C 2.43132 5.4288 3.24844
C 4.61792 6.85819 3.47615
C 5.95868 7.55701 1.30977
C 5.11171 6.84515 -1.06713
O 4.07066 4.52892 -5.66956
O -5.10717 7.93874 1.14744
O -2.14314 4.0459 -5.64367
H 1.77993 -5.12418 0.643074
H -6.11912 9.13475 0.139084
H -1.07884 -7.74599 -1.83001
H -3.6262 -11.712 -1.741
H -9.00417 -8.10126 3.22897
H -6.4742 -4.18839 3.13411
H 4.59203 0.381347 4.4813
H 9.1253 1.52671 4.1368
H 8.86546 0.198988 -3.87507
H 4.32275 -0.974532 -3.52547
H 12.7194 2.6322 1.56545
H 12.3246 2.96725 -1.73042
H 13.165 -0.00170075 -0.438983
H -10.4251 -14.6603 1.60041
H -11.351 -11.3962 1.32867
H -9.57033 -12.4578 4.05006
H 1.35267 4.88362 4.92293
H 5.28651 7.43532 5.3347
H 7.67928 8.67441 1.49307
H 6.14766 7.4185 -2.759
H 5.19769 3.09386 -5.19599

[FR-NORM-COORD]
Vibration 1
-0.0020787 -0.00831479 0.00245664
-0.00188973 -0.0075589 0.0062361
-0.00245664 -0.0075589 -0.00170075
-0.00283459 -0.00812582 -0.013984
-0.00302356 -0.00774788 -0.00888171
-0.00264562 -0.00869274 -0.00907068
-0.00529123 -0.00680301 -0.034393
-0.00264562 -0.0096376 -0.0171965
-0.00264562 -0.0111494 -0.0236216
-0.00113384 -0.00888171 0.00982658
0.00264562 -0.0149288 0.0213539
0.00396842 -0.0154958 0.0291018
0.00132281 -0.0100155 0.0251334
-0.00264562 -0.0041574 0.013606
-0.00377945 -0.00340151 0.00585815
0.00321253 -0.0115273 0.034204
-0.00302356 -0.00680301 -0.00907068
0.00585815 -0.0153068 -0.0120942
0.00510226 -0.0147399 -0.0202201
-0.00453534 -0.0062361 -0.0253223
-0.0134171 0.0020787 -0.0224877
-0.0128501 0.00226767 -0.0143619
-0.00529123 -0.00585815 -0.0336371
0 -0.00604712 0.0302356
0.0124722 0.0697309 -0.00604712
0.0143619 -0.00377945 -0.041574
-0.00340151 -0.00907068 0.00831479
0.00340151 0.013606 0.0198421
0.0107714 0.0404401 0.00982658
-0.0115273 -0.0328812 0.0185193
-0.0126612 -0.034204 0.0396842
-0.00491329 -0.013606 0.0512116
0.00321253 0.00944863 0.041385
0.0194642 0.0410071 0.0188973
-0.00188973 -0.00340151 -0.0600933
0.0153068 0.0952422 -0.0202201
-0.00151178 -0.00736993 0.0124722
0.0134171 -0.000188973 -0.0719986
0.00472431 -0.0190862 0.0239995
0.00699199 -0.020409 0.0383614
-0.00472431 0.000188973 0.0105825
-0.00699199 0.00113384 -0.00321253
0.0134171 -0.0219208 -0.00831479
0.0120942 -0.020976 -0.0226767
-0.020787 0.00793685 -0.0264562
-0.0200311 0.00925966 -0.0124722
-0.000566918 -0.00566918 -0.0357158
-0.0100155 -0.00585815 -0.034582
-0.00604712 -0.00566918 -0.0370386
0.00226767 -0.00850377 0.0385504
0.000944863 -0.0103935 0.020409
-0.00491329 0.00396842 0.0298577
-0.0168186 -0.0496998 0.00944863
-0.0196532 -0.0517785 0.0476211
-0.00548021 -0.0156847 0.0680301
0.00944863 0.0247554 0.0504557
0.00736993 0.0300466 0.0145509
Vibration 2
0.00170075 -0.000377945 -0.00529123
0.0020787 -0.00132281 -0.00170075
0.00283459 -0.00188973 0.00151178
0.00453534 -0.00151178 -0.00283459
0.00321253 -0.00075589 -0.00188973
0.00245664 -0.000377945 -0.00434637
0.00585815 0.000566918 0.00642507
0.00283459 0.000566918 -0.00642507
0.00321253 0.00132281 -0.00812582
0.00264562 -0.000944863 -0.00604712
0.00434637 -0.00075589 -0.00529123
0.00736993 -0.00264562 -0.00264562
0.00888171 -0.00472431 -0.000566918
0.0062361 -0.00434637 -0.00264562
0.00302356 -0.00226767 -0.00566918
0.0130391 -0.00699199 0.00359048
0.00396842 -0.00340151 0.0156847
-0.00453534 -0.0243775 0.027401
-0.00132281 -0.0317474 0.0449755
0.00982658 -0.0170075 0.0508336
0.0170075 0.0075589 0.0377945
0.0141729 0.013795 0.0202201
0.0143619 -0.0279679 0.0699199
0.0175745 -0.0111494 0.0103935
-0.0514005 0.0642507 -0.00736993
0.0062361 -0.00226767 0.0020787
0.00642507 -0.00302356 -0.0162516
-0.0103935 -0.000377945 -0.0251334
-0.0381725 0.0120942 -0.020976
0.0253223 -0.00718096 -0.0215429
0.0294797 -0.0111494 -0.0368497
0.0164406 -0.013795 -0.0457314
-0.00302356 -0.00888171 -0.0404401
-0.0508336 -0.0226767 -0.0317474
0.00396842 -0.000566918 -0.0020787
-0.0631168 0.11036 0.00529123
0.00132281 -0.00188973 -0.000566918
0.00661404 -0.00151178 -0.0062361
0.00359048 0.00075589 -0.00661404
0.00907068 -0.00264562 -0.00188973
0.00661404 -0.00566918 -0.0020787
0.000944863 -0.0020787 -0.00736993
-0.0134171 -0.0362827 0.0230547
-0.00774788 -0.0496998 0.0546131
0.0245664 0.0230547 0.041196
0.0200311 0.0306136 0.0107714
0.0102045 -0.0438416 0.0805023
0.0285349 -0.0181414 0.0808803
0.00774788 -0.0315584 0.0638727
0.0222988 -0.013606 0.0153068
0.0119053 -0.0166296 0.0117163
0.0222988 -0.00661404 0.00907068
0.0366607 -0.00680301 -0.0141729
0.0432747 -0.0126612 -0.041196
0.020976 -0.0190862 -0.0568808
-0.013984 -0.0111494 -0.0478101
-0.0727545 -0.0408181 -0.0360938
Vibration 3
-0.0128501 0.0075589 -0.0362827
-0.0130391 0.00529123 -0.0387394
-0.0111494 0.00472431 -0.0291018
-0.00718096 0.00642507 -0.00907068
-0.0096376 0.0062361 -0.0232436
-0.0109604 0.00812582 -0.0291018
-0.00510226 0.00642507 -0.00226767
-0.0105825 0.0100155 -0.0255113
-0.0100155 0.0120942 -0.0228657
-0.0119053 0.00699199 -0.0298577
-0.0200311 0.00850377 -0.0368497
-0.0111494 0.00321253 -0.0171965
0.00680301 -0.00377945 0.0100155
0.0111494 -0.00283459 0.0115273
0.00132281 0.00283459 -0.00925966
0.0179524 -0.0107714 0.0326923
-0.0096376 0.00113384 -0.0166296
-0.0187083 -0.0103935 -0.00736993
-0.0156847 -0.0175745 0.00812582
-0.00377945 -0.0132281 0.0141729
0.00472431 -0.000188973 0.00453534
0.00170075 0.00680301 -0.0107714
0.000188973 -0.0230547 0.0309915
0.0519675 -0.027779 0.0852266
0.0153068 -0.00907068 -0.00491329
-0.00075589 0.0243775 0.0234326
-0.00491329 0.00226767 -0.00188973
0.00359048 0.000944863 0.00264562
0.0117163 0.00302356 -0.000188973
-0.0105825 -0.00132281 0.00113384
-0.00869274 -0.00566918 0.00925966
-0.00132281 -0.00548021 0.013606
0.00472431 -0.0020787 0.0105825
0.0154958 0.0156847 0.00283459
0.0134171 0.0162516 0.0464873
0.0183303 -0.0188973 -0.00869274
-0.0143619 0.00434637 -0.0453534
0.0126612 0.0319364 0.0663294
-0.0326923 0.013606 -0.0561249
-0.0166296 0.00359048 -0.020976
0.0221098 -0.00680301 0.0285349
0.00510226 0.00377945 -0.00831479
-0.0279679 -0.0143619 -0.0120942
-0.0226767 -0.0270231 0.0154958
0.013606 0.00396842 0.00907068
0.00850377 0.0160627 -0.0183303
-0.00340151 -0.0362827 0.0398732
0.0126612 -0.0149288 0.0400622
-0.00548021 -0.0260782 0.0262672
0.0655735 -0.0368497 0.109982
0.0221098 -0.0491329 0.107714
0.0927855 -0.0103935 0.0765339
-0.0162516 -0.00132281 -0.00245664
-0.0128501 -0.00907068 0.0117163
0 -0.00831479 0.0198421
0.0105825 -0.00151178 0.0143619
0.020598 0.0190862 0.00075589
Vibration 4
-0.00812582 0.0075589 0.0141729
-0.00831479 0.00642507 0.00340151
-0.0075589 0.00604712 0.0103935
-0.0041574 0.00718096 0.000188973
-0.00699199 0.00680301 0.0192752
-0.00793685 0.0075589 0.0309915
-0.00396842 0.0128501 -0.020787
-0.0102045 0.00548021 0.0631168
-0.0132281 0.000944863 0.0933525
-0.0062361 0.00604712 0.00283459
-0.0243775 0.0306136 -0.0451645
-0.0196532 0.02759 -0.0591484
0.00491329 -0.000377945 -0.0224877
0.0222988 -0.0239995 0.0241885
0.0160627 -0.0194642 0.0357158
0.00831479 -0.00132281 -0.0400622
-0.00680301 0.00226767 0.00699199
-0.00529123 0.00925966 0.00377945
-0.00340151 0.00113384 0.00113384
-0.00302356 -0.013984 0.00151178
-0.00510226 -0.0198421 0.00453534
-0.00680301 -0.0119053 0.00736993
-0.00075589 -0.0245664 -0.00170075
0.0444086 -0.0370386 0.0120942
0.0062361 0.00302356 -0.00434637
0.0115273 0.00453534 -0.0445975
-0.00226767 0.00453534 0.000188973
0.0020787 -0.00113384 0.000944863
0.00529123 -0.00434637 0.000944863
-0.00491329 0.00736993 0.000188973
-0.00302356 0.00434637 0.00113384
0.00151178 -0.00151178 0.0020787
0.00396842 -0.00434637 0.00188973
0.00907068 -0.0156847 0.00604712
0.00188973 0.0198421 -0.0704868
0.00774788 0.00869274 -0.00982658
-0.00944863 0.00548021 -0.00680301
0.0147399 0.0145509 -0.089573
-0.0423299 0.0523454 -0.0712427
-0.034393 0.0462983 -0.096754
0.0400622 -0.0453534 0.0506447
0.0291018 -0.0364717 0.0695419
-0.00548021 0.020598 0.00359048
-0.00226767 0.0062361 -0.00132281
-0.00510226 -0.0309915 0.00491329
-0.00831479 -0.0168186 0.0100155
0.00491329 -0.0268341 -0.00264562
0.00226767 -0.0260782 -0.00226767
-0.00736993 -0.0291018 -0.00264562
0.0472432 -0.034393 -0.00377945
0.0188973 -0.0364717 0.0663294
0.0922186 -0.0644397 0.0075589
-0.00831479 0.0120942 -0.000566918
-0.00491329 0.00661404 0.00113384
0.00302356 -0.00396842 0.00264562
0.0075589 -0.00907068 0.00245664
0.00434637 -0.0170075 0.013795
Vibration 5
0.0134171 -0.013795 -0.0111494
0.0134171 -0.0143619 -0.0183303
0.0130391 -0.0141729 -0.0130391
0.0102045 -0.0143619 -0.0041574
0.0128501 -0.013984 -0.00793685
0.0132281 -0.013984 -0.00661404
0.00850377 -0.0179524 0.000944863
0.0120942 -0.0160627 -0.000377945
0.0111494 -0.0187083 0.00453534
0.00566918 -0.00869274 -0.00396842
-0.0281569 -0.00340151 -0.0308025
-0.0445975 0.00680301 -0.0287238
-0.0249444 0.0119053 0.00188973
0.0111494 0.0062361 0.0328812
0.0260782 -0.00396842 0.0291018
-0.0466762 0.0232436 -0.00226767
0.0115273 -0.00642507 -0.00548021
0.00302356 -0.013795 0.00226767
-0.00113384 0.00472431 0.0124722
0.00359048 0.0308025 0.0143619
0.013606 0.034582 0.00699199
0.0173855 0.0160627 -0.00302356
-0.00188973 0.0559359 0.0247554
-0.0255113 0.0285349 0.0338261
0.0020787 0.000188973 -0.00188973
-0.00850377 -0.0308025 -0.00736993
0.00699199 -0.00944863 -0.00245664
0.00188973 0.00170075 -0.00188973
0.00151178 0.00680301 -0.00321253
0.0075589 -0.0143619 -0.00113384
0.00302356 -0.0075589 0.000566918
-0.00226767 0.00396842 0.00113384
-0.00283459 0.00850377 0
0 0.0200311 -0.00604712
-0.0170075 -0.034204 -0.0126612
0.00245664 -0.00604712 -0.000944863
0.0126612 -0.0149288 -0.0249444
-0.02759 -0.048377 -0.0187083
-0.0425188 -0.00680301 -0.0534792
-0.0721875 0.0111494 -0.0506447
0.0272121 0.0096376 0.0582036
0.0540462 -0.0075589 0.0514005
-0.00132281 -0.0328812 0.000377945
-0.00793685 -0.000377945 0.0183303
0.0181414 0.0532903 0.00869274
0.0251334 0.020409 -0.00944863
-0.0153068 0.0561249 0.0304246
-0.00888171 0.0650066 0.0306136
0.0141729 0.0676522 0.0217318
-0.0478101 0.0364717 0.0253223
-0.0272121 0.0457314 0.0695419
0.0103935 0.00812582 0.0304246
0.0111494 -0.0228657 -0.00151178
0.00321253 -0.0109604 0.00151178
-0.00604712 0.00944863 0.00245664
-0.00680301 0.0173855 0.000566918
0.00548021 0.0222988 -0.0126612
Vibration 6
-0.00548021 -0.00718096 0.00982658
-0.00548021 -0.00661404 0.00680301
-0.0062361 -0.00642507 0.00188973
-0.00188973 -0.0062361 -0.0130391
-0.00642507 -0.00718096 -0.000377945
-0.00604712 -0.00699199 0.00869274
0.000188973 0.00075589 -0.0383614
-0.00642507 -0.00642507 0.0198421
-0.00699199 -0.00642507 0.0317474
-0.00340151 -0.00888171 0.0103935
0.00396842 -0.0100155 0.0160627
0.00642507 -0.0115273 0.0128501
0.000377945 -0.0120942 0.00321253
-0.00642507 -0.0119053 -0.00132281
-0.00793685 -0.0105825 0.00264562
0.00283459 -0.0132281 -0.000188973
-0.00736993 -0.00188973 0.00340151
-0.00377945 -0.0351489 0.0113384
-0.0062361 -0.0247554 0.0160627
-0.0122832 0.0188973 0.0126612
-0.0149288 0.0498888 0.00396842
-0.0128501 0.0400622 -0.000944863
-0.0154958 0.0332592 0.0177634
-0.0115273 -0.00925966 -0.0232436
-0.00396842 -0.0158737 -0.0062361
0.0532903 0.0391173 -0.0143619
0.00170075 -0.0115273 -0.0107714
-0.00377945 0.00170075 -0.00982658
-0.00585815 0.0124722 -0.0119053
0.0075589 -0.0270231 -0.00793685
0.00566918 -0.0251334 -0.00434637
-0.00151178 -0.00869274 -0.00359048
-0.00585815 0.00453534 -0.00585815
-0.0119053 0.0529123 -0.0221098
0.0801244 0.0525344 -0.000566918
-0.00188973 -0.0430858 -0.00226767
-0.00491329 -0.00604712 0.00850377
0.112628 0.0946753 0.0166296
0.00812582 -0.00944863 0.0222988
0.0126612 -0.0119053 0.0170075
-0.0102045 -0.0126612 -0.00736993
-0.013606 -0.0105825 -0.000377945
0.000188973 -0.0684081 0.013795
-0.00359048 -0.0502667 0.0222988
-0.0187083 0.0820141 0.000944863
-0.0153068 0.0655735 -0.00831479
-0.0188973 0.0200311 0.0266451
-0.0217318 0.0502667 0.0302356
-0.00831479 0.041385 0.000944863
-0.0113384 -0.00812582 -0.0291018
-0.00226767 -0.0062361 -0.0368497
-0.0309915 -0.0105825 -0.0200311
0.0130391 -0.0398732 -0.00869274
0.0100155 -0.0364717 -0.00245664
-0.00340151 -0.0062361 -0.00075589
-0.0109604 0.0177634 -0.00453534
0.00453534 0.0589595 -0.0436527
Vibration 7
-0.00359048 -0.00982658 0.000566918
-0.00396842 -0.0115273 0.00340151
-0.00264562 -0.0117163 0.00321253
-0.000377945 -0.00982658 -0.00264562
-0.00151178 -0.0103935 0
-0.00226767 -0.00925966 -0.000944863
0.000377945 -0.00869274 -0.0100155
-0.00188973 -0.00850377 -0.00302356
-0.00188973 -0.00831479 -0.0041574
-0.00529123 -0.00888171 -0.000944863
-0.00982658 -0.00642507 -0.0075589
-0.0109604 -0.00566918 -0.00888171
-0.00736993 -0.00774788 -0.00321253
-0.00302356 -0.0100155 0.00283459
-0.00226767 -0.0105825 0.00377945
-0.00869274 -0.00718096 -0.00491329
-0.00340151 -0.00925966 0.0041574
-0.0143619 0.0359048 -0.00264562
-0.020976 0.0606602 -0.00680301
-0.0158737 0.0389284 -0.0041574
-0.000944863 -0.0183303 0.00548021
0.00548021 -0.0425188 0.0100155
-0.0272121 0.0801244 -0.0120942
-0.00151178 -0.0113384 0.00566918
0.00831479 0.020787 -0.0143619
0.0325033 0.0255113 0.0213539
-0.000188973 -0.00925966 -0.00302356
0.00566918 -0.0173855 -0.00188973
0.00982658 -0.0219208 -0.0020787
-0.0075589 0.00188973 -0.00396842
-0.00831479 0.00340151 -0.00377945
-0.00075589 -0.0075589 -0.00264562
0.00642507 -0.0187083 -0.0020787
0.0192752 -0.0678412 0.0119053
0.055369 0.0247554 0.0457314
0.00736993 0.061794 -0.0249444
-0.00491329 -0.0120942 0.00566918
0.0731324 0.0595264 0.0693529
-0.0124722 -0.00491329 -0.0113384
-0.0145509 -0.00377945 -0.013984
-0.000566918 -0.0113384 0.00680301
0.000944863 -0.0120942 0.00793685
-0.0185193 0.0540462 -0.00472431
-0.0302356 0.0990216 -0.0128501
0.00548021 -0.0419519 0.0096376
0.0164406 -0.0848487 0.0179524
-0.0376055 0.0954312 -0.0162516
-0.0527234 0.0823921 -0.0158737
-0.000944863 0.0986437 -0.0120942
-0.0020787 -0.0109604 0.00491329
-0.00585815 -0.0113384 0.0147399
0.00793685 -0.0143619 0.00453534
-0.0120942 0.00907068 -0.00453534
-0.0145509 0.0126612 -0.00434637
-0.00113384 -0.00736993 -0.00245664
0.0120942 -0.0285349 -0.00188973
-0.00453534 -0.0797464 0.0336371
Vibration 8
0.0115273 -0.00604712 -0.000566918
0.0107714 0.00359048 -0.0166296
0.00245664 0.00699199 -0.0213539
-0.0119053 -0.000188973 -0.0170075
-0.00283459 -0.000944863 -0.0149288
0.00302356 -0.00850377 0.000944863
-0.0158737 -0.00944863 -0.0185193
-0.00151178 -0.0187083 0.0228657
-0.00585815 -0.0292908 0.0442196
0.0160627 -0.00907068 0.0130391
0.0075589 -0.00888171 0.00812582
0.00188973 -0.00548021 0.00869274
0.00491329 -0.00170075 0.0134171
0.0190862 -0.00510226 0.0270231
0.0251334 -0.00907068 0.027401
-0.00661404 0.00434637 0.00604712
0.0020787 0.0096376 -0.0171965
-0.0062361 0.0096376 -0.0115273
-0.00151178 -0.00642507 0.00113384
0.0120942 -0.0221098 0.00812582
0.0179524 -0.0130391 0.00170075
0.0128501 0.00245664 -0.0109604
0.0211649 -0.0519675 0.0243775
-0.0362827 0.0289128 -0.0379835
0.0109604 0.0132281 -0.0289128
-0.0107714 0.0153068 0.0156847
-0.0164406 0.00699199 -0.0134171
-0.0102045 0.0105825 -0.00812582
0.00491329 0.00869274 -0.0120942
-0.0268341 0.00888171 -0.0102045
-0.0313695 0.0143619 -0.00170075
-0.0258892 0.0192752 0.00340151
-0.0156847 0.0177634 0.000377945
0.0175745 0.00359048 0.00132281
0.00548021 0.000377945 0.0474321
0.0170075 0.0196532 -0.0449755
0.0170075 0.00774788 -0.020409
0.00434637 0.0226767 0.0752111
0.00377945 -0.0107714 0.00226767
-0.00585815 -0.00491329 0.00340151
0.0255113 -0.00434637 0.0372276
0.0357158 -0.0115273 0.0376055
-0.0162516 0.0192752 -0.0166296
-0.0075589 -0.00907068 0.00566918
0.0264562 -0.0202201 0.0062361
0.0179524 0.00642507 -0.0156847
0.0177634 -0.0474321 0.0232436
0.048188 -0.0678412 0.0175745
0.00529123 -0.0672742 0.0466762
-0.0595264 0.0406291 -0.0633058
-0.0041574 0.0568808 -0.0525344
-0.0678412 0.00718096 -0.0302356
-0.0306136 0.00491329 -0.013984
-0.0389284 0.0145509 0.00113384
-0.0292908 0.0236216 0.00982658
-0.0109604 0.020598 0.0041574
0.0143619 0.00472431 0.0130391
Vibration 9
-0.0105825 0.00302356 -0.0262672
-0.00982658 -0.00245664 -0.0517785
-0.00359048 -0.00510226 -0.0340151
0.00642507 0.000188973 -0.00170075
0.000566918 0.000188973 -0.0075589
-0.0041574 0.00585815 0.00396842
0.00925966 0.00283459 0.0145509
-0.00245664 0.0181414 0.0548021
-0.0020787 0.0294797 0.102234
-0.0109604 0.00321253 -0.0215429
0.00982658 -0.013795 0.0156847
0.0179524 -0.0187083 0.0315584
0.00132281 -0.00661404 0.00661404
-0.0232436 0.0113384 -0.0359048
-0.0281569 0.0141729 -0.0478101
0.0141729 -0.0143619 0.0306136
-0.00283459 -0.00680301 -0.0236216
-0.0179524 -0.00529123 -0.013984
-0.0198421 0.00585815 0.00264562
-0.00604712 0.0154958 0.0096376
0.0113384 0.00850377 0.00113384
0.0126612 -0.00321253 -0.0153068
-0.00982658 0.0359048 0.0266451
-0.0075589 0.00151178 -0.00188973
0.013795 0.00434637 -0.00529123
-0.0179524 -0.020409 -0.0020787
0.00869274 -0.00321253 -0.00245664
0.0122832 -0.00585815 -0.00113384
0.013606 -0.00264562 -0.00245664
0.0075589 -0.00321253 -0.0020787
0.0102045 -0.0075589 0.000188973
0.0145509 -0.0117163 0.00151178
0.0154958 -0.0109604 0.000944863
0.0151178 -0.00529123 -0.00075589
-0.0300466 -0.0222988 -0.0122832
0.013984 0.0111494 -0.00793685
-0.0126612 -0.00472431 -0.0742662
-0.0468652 -0.0466762 -0.0239995
0.0211649 -0.0241885 0.0323143
0.0372276 -0.0319364 0.0631168
-0.0372276 0.0221098 -0.0570697
-0.0462983 0.0243775 -0.0738883
-0.0294797 -0.0119053 -0.0196532
-0.0323143 0.00793685 0.00982658
0.0232436 0.0132281 0.00718096
0.0258892 -0.0075589 -0.0221098
-0.0245664 0.0321253 0.0351489
-0.0117163 0.0468652 0.0349599
0.00396842 0.0461093 0.0232436
0.00680301 -0.00793685 0.0239995
-0.000944863 -0.0160627 -0.0487549
-0.0419519 0.0383614 -0.000566918
0.00396842 0.000566918 -0.00302356
0.00869274 -0.0075589 0.000566918
0.0166296 -0.0151178 0.00283459
0.0185193 -0.0134171 0.00188973
0.0130391 -0.00642507 0.000188973
Vibration 10
0.0075589 -0.0119053 -0.0147399
0.00793685 -0.0134171 -0.0181414
0.0102045 -0.013984 -0.00321253
0.00982658 -0.0132281 0.0096376
0.0113384 -0.0122832 0.00699199
0.0102045 -0.0105825 0
0.00680301 -0.0130391 -0.00340151
0.0115273 -0.00529123 0.00831479
0.0124722 -0.000566918 0.0160627
0.000944863 -0.00774788 -0.0188973
0.00245664 -0.0187083 -0.00113384
-0.00510226 -0.0141729 0.00302356
-0.0147399 0.000944863 -0.0111494
-0.0196532 0.013606 -0.0334482
-0.0113384 0.0075589 -0.0362827
-0.0211649 0.00377945 -0.00226767
0.0096376 -0.0119053 -0.00188973
0.00434637 0.0062361 -0.0041574
0.00453534 0.00585815 -0.00321253
0.0103935 -0.0126612 0
0.0147399 -0.0264562 0.00188973
0.0145509 -0.0260782 0.000944863
0.0120942 -0.0188973 0.00188973
0.00321253 0.000944863 0.0377945
-0.0149288 0 0.0141729
0.0372276 -0.00302356 -0.00850377
0.00264562 -0.00188973 0.0109604
-0.0160627 0.020787 0.00718096
-0.0147399 0.00661404 0.0105825
0.00264562 0.00188973 0.00925966
-0.0188973 0.0364717 0.00245664
-0.0421409 0.0670853 -0.00188973
-0.0398732 0.0574477 -0.000188973
-0.0124722 -0.00321253 0.0143619
0.0385504 0.0109604 -0.0222988
-0.0164406 -0.00642507 0.0192752
0.00699199 -0.013984 -0.0300466
0.0610381 0.0236216 -0.0300466
0.0103935 -0.0317474 0.0102045
-0.00245664 -0.0228657 0.0179524
-0.0296687 0.02759 -0.048566
-0.0145509 0.0153068 -0.0498888
0.000566918 0.0194642 -0.0062361
0.000377945 0.0194642 -0.00472431
0.0179524 -0.0376055 0.00396842
0.0183303 -0.0368497 0.00245664
0.0102045 -0.0102045 -0.00226767
0.0179524 -0.0287238 -0.00491329
0.00982658 -0.0228657 0.0143619
0.0115273 -0.0075589 0.0672742
-0.0170075 -0.0173855 0.0461093
0.0325033 0.0251334 0.0302356
0.0188973 -0.0190862 0.0126612
-0.0187083 0.0408181 0.000944863
-0.0608492 0.096754 -0.00718096
-0.0561249 0.075778 -0.00396842
-0.0115273 0.00132281 0.0262672
Vibration 11
0.00491329 0.00170075 -0.0291018
0.00472431 0.00736993 -0.0400622
-0.000377945 0.00888171 -0.0236216
-0.0075589 0.00377945 0.00302356
-0.00472431 0.00453534 -0.00850377
-0.000944863 0 -0.0158737
-0.00831479 0.0062361 -0.00831479
-0.00340151 -0.00642507 -0.0100155
-0.00548021 -0.0130391 -0.00680301
0.00982658 -0.00113384 -0.0173855
0 -0.00283459 -0.0200311
0.00264562 -0.00434637 -0.0020787
0.0149288 -0.00302356 0.0171965
0.0270231 -0.0020787 0.0232436
0.0243775 -0.00132281 0.00604712
0.0162516 -0.00472431 0.0359048
-0.000566918 0.0109604 -0.0177634
-0.0130391 0.0315584 -0.0158737
-0.0117163 0.0283459 -0.0062361
0.00321253 0.00359048 0.00151178
0.0156847 -0.0149288 0
0.013795 -0.0115273 -0.00944863
0.00661404 -0.00510226 0.013606
-0.0257003 0.0315584 -0.0257003
-0.020787 -0.0096376 0.0376055
0.020976 0.013795 -0.0162516
-0.0062361 0.000188973 0.0122832
0.000944863 -0.0105825 0.0128501
-0.0122832 -0.00793685 0.0160627
-0.0100155 0.00188973 0.0126612
-0.00132281 -0.0113384 0.013606
0.0102045 -0.0285349 0.0149288
0.0113384 -0.02759 0.013984
-0.0255113 -0.00831479 0.00340151
0.013795 0.0257003 -0.0368497
-0.0317474 -0.0117163 0.0636838
0.00812582 0.00944863 -0.0561249
0.0383614 0.0357158 -0.0498888
-0.0107714 -0.00283459 -0.0366607
-0.00548021 -0.00604712 -0.00377945
0.0391173 -0.00264562 0.0423299
0.034393 -0.000566918 0.0109604
-0.0241885 0.0493218 -0.0215429
-0.0219208 0.0444086 -0.00491329
0.0258892 -0.0321253 0.0062361
0.0238105 -0.0262672 -0.0103935
-0.0062361 0.0202201 0.00491329
0.0234326 -0.0313695 -0.00377945
0.00566918 -0.0126612 0.0508336
-0.0451645 0.0396842 -0.0391173
0.0122832 0.0536682 -0.0634948
-0.0744552 0.0268341 -0.0171965
-0.0179524 0.0132281 0.0109604
-0.00264562 -0.00888171 0.0134171
0.0183303 -0.041385 0.0166296
0.0192752 -0.0389284 0.0153068
-0.0253223 -0.0119053 -0.00736993
Vibration 12
-0.0175745 0.00453534 -0.00812582
-0.0170075 -0.00850377 -0.00548021
-0.00566918 -0.0130391 0.00151178
0.0143619 -0.00264562 0.0103935
0.00264562 -0.0020787 0.00396842
-0.00604712 0.00774788 -0.00340151
0.0188973 0.00453534 0.0226767
-0.00132281 0.0215429 -0.0102045
0.00359048 0.0360938 -0.0188973
-0.0181414 0.00472431 -0.00888171
-0.0251334 0.0143619 -0.0281569
-0.00907068 0.00472431 -0.0130391
0.0132281 -0.0141729 0.020409
0.0166296 -0.0217318 0.0340151
0 -0.0109604 0.0181414
0.0391173 -0.0291018 0.0466762
-0.0041574 -0.020409 0.00340151
-0.00245664 -0.0289128 0.00453534
-0.0041574 -0.0222988 0.00302356
-0.00907068 -0.00661404 0.000566918
-0.00925966 -0.00566918 0.000188973
-0.00718096 -0.0128501 0.00151178
-0.0149288 0.013606 -0.00434637
-0.020976 -0.00245664 -0.0472432
0.00699199 0.00151178 -0.00264562
0.00774788 -0.0126612 0.00453534
0.0153068 -0.00264562 0.00510226
0 0.0128501 0.00113384
0.00453534 0.000944863 0.00283459
0.0228657 -0.00283459 0.00245664
0.00831479 0.0215429 -0.00566918
-0.013984 0.0472432 -0.0109604
-0.0175745 0.0406291 -0.00793685
0.0107714 -0.0124722 0.0103935
0.00188973 -0.00472431 -0.00869274
0.00944863 0.00226767 -0.00869274
-0.0253223 -0.0141729 -0.00869274
-0.00396842 -0.0213539 -0.0224877
-0.0427078 0.0294797 -0.0540462
-0.0134171 0.0115273 -0.0262672
0.0336371 -0.0372276 0.0600933
0.00321253 -0.0156847 0.0272121
0.000188973 -0.0389284 0.00585815
-0.00264562 -0.0272121 0.00359048
-0.0109604 0.00226767 -0.00113384
-0.00831479 -0.0105825 0.00132281
-0.0075589 -0.0183303 0.0103935
-0.0360938 0.0510226 0.020787
-0.00642507 0.0281569 -0.0504557
-0.0245664 0.00245664 -0.0659514
0.0202201 0.0119053 -0.106203
-0.0990216 -0.00359048 -0.034393
0.0383614 -0.0185193 0.00718096
0.0126612 0.0221098 -0.00736993
-0.0285349 0.0704868 -0.0177634
-0.0332592 0.0557469 -0.0126612
0.0105825 -0.00718096 0.0266451
Vibration 13
-0.00680301 0.000188973 0.00585815
-0.00642507 -0.00453534 0.00736993
-0.00188973 -0.0062361 0.00302356
0.0062361 -0.00226767 0
0.00113384 -0.00226767 0.00132281
-0.0020787 0.00151178 0.00302356
0.00869274 0.000377945 0.00642507
0 0.0075589 -0.000566918
0.00245664 0.0147399 -0.00453534
-0.00793685 0.00075589 0.00359048
-0.00718096 0.00377945 -0.00113384
-0.00340151 0.00170075 -0.00264562
-0.000944863 -0.00453534 0.000944863
-0.00283459 -0.00736993 0.00396842
-0.00680301 -0.00434637 0.00472431
0.00510226 -0.00774788 0.00075589
-0.00226767 -0.00604712 0.00151178
-0.0062361 0.0107714 -0.000566918
-0.00869274 0.0181414 -0.0020787
-0.00529123 0.00585815 -0.000944863
-0.000377945 -0.0119053 0.00264562
0.000188973 -0.0162516 0.00359048
-0.00245664 -0.00132281 0.0103935
0.0020787 -0.0122832 -0.00548021
0.000566918 0.00510226 -0.00642507
-0.00170075 -0.0062361 0.00377945
0.00793685 -0.0041574 -0.00302356
0.000188973 0.00736993 -0.00396842
-0.00151178 0.0151178 -0.00548021
0.0164406 -0.0151178 -0.00245664
0.0149288 -0.0126612 -0.00302356
0.00529123 0.00151178 -0.00434637
-0.00188973 0.0111494 -0.00453534
-0.00170075 0.0313695 -0.00774788
-0.000377945 -0.00642507 0.00585815
0.00321253 -0.00529123 -0.0096376
-0.00944863 -0.00661404 0.0107714
-0.00850377 -0.0134171 0.00566918
-0.00888171 0.00812582 -0.00359048
-0.00226767 0.00434637 -0.00604712
-0.00113384 -0.0119053 0.00642507
-0.00888171 -0.00604712 0.0062361
-0.00831479 0.0183303 -0.00170075
-0.0111494 0.0323143 -0.00491329
0.00075589 -0.0226767 0.00377945
0.00377945 -0.0268341 0.00529123
-0.108281 0.324088 -0.125478
0.0801244 -0.299333 -0.209382
0.0296687 -0.0502667 0.393819
0.00226767 -0.0105825 -0.0134171
0.00340151 -0.00982658 -0.00359048
-0.00170075 -0.0192752 -0.00396842
0.0230547 -0.0243775 -0.00113384
0.020598 -0.020787 -0.00245664
0.00321253 0.00491329 -0.00529123
-0.00869274 0.0213539 -0.00529123
0.00151178 0.0308025 -0.0168186
Vibration 14
-0.00472431 0.000188973 0.0096376
-0.00453534 -0.00321253 0.00925966
-0.00132281 -0.00434637 0.000566918
0.00529123 -0.00132281 -0.00642507
0.000944863 -0.00188973 -0.00283459
-0.00132281 0.00113384 0.00264562
0.00736993 0.000188973 -0.000566918
0.000377945 0.00548021 -0.000944863
0.00226767 0.0113384 -0.00472431
-0.00529123 0.000188973 0.0102045
-0.00321253 0.00302356 0.00680301
-0.00132281 0.0020787 0.0020787
-0.00170075 -0.00245664 0.00132281
-0.00321253 -0.00585815 0.00566918
-0.00510226 -0.0041574 0.00982658
0.000566918 -0.00321253 -0.00585815
-0.00132281 -0.00472431 0.00113384
-0.0188973 0.0496998 -0.00434637
-0.0192752 0.0521564 0
-0.000944863 -0.00548021 0.0102045
0.0158737 -0.0570697 0.0164406
0.0151178 -0.0544241 0.0113384
-0.00075589 -0.0062361 0.0105825
0.00132281 -0.0115273 -0.00680301
-0.00491329 0.00850377 -0.00907068
-0.00680301 -0.00548021 0.000944863
0.0075589 -0.00453534 -0.00793685
-0.00359048 0.0158737 -0.00774788
-0.00812582 0.034204 -0.0111494
0.0224877 -0.0300466 -0.00491329
0.0245664 -0.034204 -0.00188973
0.0115273 -0.0102045 -0.00245664
-0.00321253 0.0156847 -0.00472431
-0.00982658 0.0719986 -0.0171965
-0.00396842 -0.00944863 0.00850377
-0.00075589 -0.0190862 -0.0102045
-0.00661404 -0.00472431 0.0154958
-0.0156847 -0.0160627 0.0124722
-0.00283459 0.0062361 0.0075589
0.000188973 0.00453534 -0.000944863
-0.00302356 -0.00982658 0.00566918
-0.00680301 -0.00604712 0.0117163
-0.0323143 0.089762 -0.0113384
-0.0340151 0.0971319 -0.00472431
0.0289128 -0.096565 0.0249444
0.0281569 -0.0890061 0.0160627
0.0362827 -0.12321 0.0599043
-0.0281569 0.0999665 0.089384
-0.0132281 0.0105825 -0.1251
0.00566918 -0.0117163 -0.0120942
-0.00113384 -0.0126612 -0.00321253
0.00075589 -0.0164406 -0.00604712
0.0306136 -0.0455424 -0.00453534
0.0359048 -0.0544241 0.000377945
0.0122832 -0.0117163 -0.00075589
-0.013606 0.0349599 -0.00472431
-0.0096376 0.0625499 -0.0449755
Vibration 15
-0.0115273 -0.000944863 0.0192752
-0.0105825 -0.00982658 0.0062361
-0.00226767 -0.0132281 -0.0234326
0.0126612 -0.00377945 -0.0260782
0.00529123 -0.00472431 -0.0251334
-0.00188973 0.00170075 -0.00226767
0.0120942 -0.00604712 -0.020409
0.0020787 0.0134171 -0.00396842
0.00642507 0.02759 -0.00699199
-0.0107714 -0.00226767 0.0319364
-0.00226767 0.000944863 0.0306136
0.000566918 -0.000188973 0.0160627
-0.00718096 -0.0075589 0.0041574
-0.00812582 -0.0170075 0.0177634
-0.0111494 -0.0130391 0.0296687
-0.0124722 -0.00283459 -0.0336371
-0.00170075 -0.0171965 -0.0255113
-0.013606 -0.0173855 -0.0175745
-0.0147399 -0.0117163 -0.00396842
-0.0041574 -0.00548021 0.00132281
0.00850377 -0.00680301 -0.00604712
0.00831479 -0.0126612 -0.0196532
-0.00566918 0.00604712 0.0177634
0.00566918 -0.0360938 -0.0119053
0.0164406 0.0075589 0.0258892
0.00188973 -0.00113384 -0.00491329
0.00982658 0.00245664 -0.0183303
0.0317474 -0.0075589 -0.00925966
0.0325033 -0.000188973 -0.0115273