[Molden Format]
[FREQ]
8.9
18.8
24.3
28.8
33.4
35.3
39.5
45.0
53.9
58.0
73.4
79.9
88.3
95.8
109.4
116.6
136.2
139.1
147.8
156.6
172.3
179.9
196.6
210.4
214.2
242.2
255.6
259.0
283.3
293.6
314.7
327.3
338.6
353.6
359.3
363.4
364.9
370.9
391.3
430.5
463.4
471.4
485.4
509.5
529.6
537.2
545.5
551.4
570.9
574.8
602.2
613.4
615.8
630.1
631.1
644.8
678.9
680.0
683.6
726.0
734.0
743.5
767.2
778.9
791.5
808.8
831.7
839.6
849.6
863.8
882.5
884.7
895.8
903.5
935.6
946.7
950.4
993.8
1007.3
1008.1
1009.4
1011.2
1015.6
1018.4
1033.5
1045.7
1050.0
1074.0
1078.7
1082.3
1086.0
1097.3
1128.0
1163.2
1179.5
1181.6
1184.5
1186.8
1192.0
1207.4
1226.7
1251.1
1263.0
1266.3
1272.0
1274.9
1281.8
1286.2
1290.4
1299.0
1302.8
1326.4
1326.8
1328.6
1332.2
1345.1
1350.2
1352.1
1362.7
1376.2
1380.5
1390.9
1421.7
1450.8
1486.1
1500.3
1520.4
1528.2
1528.9
1573.0
1579.5
1589.0
1691.5
1697.7
1699.6
1702.5
1704.2
1709.5
1713.6
1778.5
1824.3
1838.7
1851.0
2448.0
2651.7
2654.0
2666.2
2673.2
2674.6
2734.9
2743.1
2743.9
2744.5
2745.2
2745.8
2750.6
2753.9
2761.6
2763.5
2764.0
2765.5
2767.4
2769.2
2779.3
2798.0
       
[FR-COORD]
C -1.95284 -3.16435 0.672176
C 0.754946 -3.16435 0.672176
C 2.04922 -0.941084 0.672176
N 0.813338 1.38574 0.95469
C -1.85382 1.40501 1.64614
C -3.2199 -0.952611 1.08432
N -2.95326 3.24598 2.74615
C -5.88895 -0.795386 0.978122
N -8.07329 -0.694852 0.873431
C -3.23105 -5.56316 0.155713
C -2.58137 -6.92358 -2.02616
C -3.76131 -9.19314 -2.5687
C -5.60512 -10.1117 -0.888549
C -6.26161 -8.79497 1.29919
C -5.06276 -6.5067 1.80148
O -6.59495 -12.3535 -1.63839
C 4.83014 -0.891195 0.498699
C 6.27049 -0.743418 2.7008
C 8.89589 -0.724899 2.54357
C 10.0847 -0.858503 0.189728
C 8.62773 -1.01214 -2.00991
C 6.00498 -1.02707 -1.86062
C 12.8938 -0.819196 -0.0041574
C -8.61148 -13.3649 -0.180091
C -1.79411 4.68822 -3.29908
C -1.11947 7.47217 -2.65884
C 0.245475 7.96444 -0.281569
C 1.59795 6.05487 0.946186
C 1.94188 3.54305 -0.258892
C 0.163083 10.3782 0.776866
C 1.40142 10.8665 3.05153
C 2.7265 8.94785 4.27362
C 2.8344 6.53373 3.21934
O 3.2303 3.24069 -2.1061
O -1.74932 9.14023 -4.09258
O -3.11843 4.41157 -5.25438
H 1.74573 -4.96393 0.627011
H -3.68213 5.88555 -6.30998
H -1.14971 -6.17203 -3.3091
H -3.30116 -10.269 -4.25699
H -7.68041 -9.50986 2.59422
H -5.56335 -5.44751 3.50091
H 5.3466 -0.649121 4.53742
H 10.0212 -0.604901 4.25869
H 9.54879 -1.10001 -3.84578
H 4.86038 -1.09888 -3.5765
H 13.5571 0.982469 -0.808803
H 13.6004 -2.334 -1.24042
H 13.8347 -1.04748 1.83077
H -9.08561 -15.0906 -1.23324
H -10.2253 -12.0706 -0.150422
H -7.97805 -13.8364 1.73061
H -0.867573 11.8805 -0.200122
H 1.33755 12.7575 3.86638
H 3.69139 9.33279 6.05298
H 3.89189 5.03782 4.16515
H -2.13993 4.8874 3.19855

[FR-NORM-COORD]
Vibration 1
-0.00982658 -0.00604712 -0.0111494
-0.0100155 -0.00188973 -0.00982658
-0.013606 0.000377945 -0.0134171
-0.0170075 -0.00132281 -0.020598
-0.0194642 -0.000944863 -0.0309915
-0.013984 -0.00661404 -0.020976
-0.0268341 0.00453534 -0.0474321
-0.0143619 -0.0134171 -0.0217318
-0.0145509 -0.0196532 -0.0217318
-0.00510226 -0.0109604 -0.000377945
-0.00548021 -0.0173855 0.00359048
0.00075589 -0.0234326 0.0151178
0.00793685 -0.0230547 0.0230547
0.00736993 -0.0160627 0.0185193
0.00075589 -0.00982658 0.00680301
0.0154958 -0.0306136 0.0355268
-0.0132281 0.00359048 -0.00812582
-0.0181414 -0.000566918 -0.00472431
-0.0177634 0.00264562 0.00113384
-0.0124722 0.00944863 0.00340151
-0.0075589 0.0134171 -0.000188973
-0.00793685 0.0103935 -0.00585815
-0.0120942 0.0122832 0.00944863
0.0238105 -0.0330702 0.0453534
0.00453534 0.0449755 -0.013606
0.0232436 0.0364717 0.0041574
0.0211649 0.0124722 0.0102045
0.00491329 -0.00472431 0.00188973
-0.0103935 0.000377945 -0.0128501
0.0366607 0.00680301 0.0241885
0.0360938 -0.0154958 0.0294797
0.0198421 -0.0321253 0.020598
0.00377945 -0.0270231 0.00699199
-0.0164406 0.00340151 -0.0173855
0.0387394 0.0495108 0.0124722
0.00869274 0.0659514 -0.0192752
-0.00699199 -0.000188973 -0.00510226
0.0230547 0.076156 -0.0126612
-0.0105825 -0.0177634 -0.00226767
0.000566918 -0.0285349 0.0183303
0.0119053 -0.0151178 0.0241885
0.000377945 -0.00434637 0.00321253
-0.0221098 -0.00642507 -0.00642507
-0.0217318 -0.000566918 0.00377945
-0.00359048 0.0187083 0.00151178
-0.0041574 0.0130391 -0.00869274
-0.0120942 0.0126612 0.0102045
-0.00812582 0.0124722 0.0115273
-0.0158737 0.013795 0.0115273
0.0313695 -0.0419519 0.0563138
0.0170075 -0.0417629 0.0410071
0.0300466 -0.0187083 0.0468652
0.0495108 0.0200311 0.0309915
0.048566 -0.0196532 0.0400622
0.0200311 -0.0495108 0.0241885
-0.00925966 -0.0402512 0.000377945
-0.0313695 0.00869274 -0.0546131
Vibration 2
-0.00245664 -0.000377945 0.00831479
-0.00264562 0.00188973 -0.000377945
-0.00377945 0.00264562 0.0020787
-0.00377945 0.00151178 0.0122832
-0.00321253 -0.00132281 0.0158737
-0.00245664 -0.0020787 0.0166296
-0.00529123 -0.00396842 0.0177634
-0.00321253 -0.00510226 0.02759
-0.00377945 -0.00850377 0.0370386
-0.00188973 -0.000566918 0.00718096
-0.00548021 0.00396842 0.00340151
-0.00472431 0.00396842 0.00188973
-0.000566918 -0.000566918 0.00396842
0.00321253 -0.00510226 0.00793685
0.00245664 -0.00491329 0.00944863
-0.000377945 0.000188973 0.00188973
-0.00434637 0.000377945 -0.00982658
0.00699199 -0.000944863 -0.0171965
0.0062361 -0.00604712 -0.0306136
-0.00604712 -0.0100155 -0.0366607
-0.0173855 -0.00812582 -0.0292908
-0.0166296 -0.00283459 -0.0158737
-0.00680301 -0.0151178 -0.0508336
0.00491329 -0.00529123 0.00548021
0.0438416 0.00264562 -0.0289128
0.0393063 0.00264562 -0.0219208
-0.00188973 0.0041574 0.00151178
-0.0194642 0.00566918 0.0230547
-0.00113384 0.00680301 0.0258892
-0.0217318 0.0041574 0
-0.0561249 0.0062361 0.0181414
-0.0716206 0.00831479 0.0383614
-0.0536682 0.00793685 0.041196
0.013795 0.0145509 0.034771
0.0699199 0.00132281 -0.0370386
0.0888171 0.00264562 -0.0599043
-0.00132281 0.00264562 -0.00869274
0.119431 0.00170075 -0.0772898
-0.00869274 0.00718096 0.00170075
-0.0075589 0.00736993 -0.00113384
0.00642507 -0.00850377 0.0096376
0.00510226 -0.00850377 0.0124722
0.0166296 0.00226767 -0.0126612
0.0151178 -0.00680301 -0.0366607
-0.0268341 -0.0105825 -0.0338261
-0.0255113 -0.00113384 -0.00982658
-0.0075589 -0.0130391 -0.0466762
-0.0158737 -0.0113384 -0.0606602
0.00188973 -0.0245664 -0.0565028
0.00472431 -0.00434637 0.00377945
0.00302356 -0.00774788 0.0117163
0.0103935 -0.0075589 0.00302356
-0.00907068 0.00264562 -0.0156847
-0.0701088 0.00661404 0.0164406
-0.0969429 0.0109604 0.0515895
-0.0653845 0.0096376 0.0570697
-0.0103935 -0.00170075 0.0175745
Vibration 3
0.00699199 -0.0164406 0.0175745
0.00718096 -0.0119053 0.0151178
0.00264562 -0.00925966 0.00850377
-0.0020787 -0.0111494 0.00359048
-0.00075589 -0.013606 0.0075589
0.00340151 -0.0181414 0.0166296
-0.00226767 -0.0111494 0.00188973
0.00283459 -0.0236216 0.0222988
0.00245664 -0.0287238 0.02759
0.0075589 -0.0166296 0.0166296
0.0128501 -0.0183303 0.0192752
0.00245664 -0.0105825 0.00944863
-0.013795 -0.00113384 -0.00321253
-0.0141729 -0.00302356 -0.00226767
-0.00321253 -0.0111494 0.00793685
-0.0283459 0.00925966 -0.0153068
0.00226767 0.00226767 0.00566918
0.00377945 0.0257003 0.00321253
0.00321253 0.0491329 -0.000188973
0.00151178 0.0489439 -0.00113384
0.000188973 0.0219208 0.00170075
0.000566918 -0.00151178 0.00510226
0.00075589 0.0801244 -0.00491329
-0.0629279 0.0357158 -0.0447865
-0.00434637 0.00226767 -0.00491329
0.0147399 -0.000944863 -0.0096376
0.0122832 -0.0062361 -0.00699199
0.0020787 -0.0122832 -0.00510226
-0.00831479 -0.0128501 -0.00604712
0.0211649 -0.00604712 -0.00699199
0.0200311 -0.0117163 -0.00510226
0.0103935 -0.0173855 -0.00359048
0.00113384 -0.0177634 -0.00359048
-0.0213539 -0.0156847 -0.0147399
0.0308025 0.00075589 -0.0147399
0.00321253 0.0075589 -0.0109604
0.0103935 -0.0102045 0.0188973
0.020787 0.00907068 -0.0179524
0.0239995 -0.0247554 0.027779
0.00548021 -0.0107714 0.0103935
-0.0234326 0.00188973 -0.00944863
-0.00396842 -0.0124722 0.00850377
0.00510226 0.0268341 0.00377945
0.00453534 0.0685971 -0.00226767
-0.00132281 0.020598 0.000944863
-0.000944863 -0.0215429 0.00699199
-0.020409 0.0920297 0.00377945
0.0162516 0.0948642 -0.0141729
0.00585815 0.0806913 -0.0075589
-0.0803134 0.0496998 -0.0597153
-0.041385 0.0631168 -0.0559359
-0.0925966 0.0145509 -0.0400622
0.0291018 -0.00132281 -0.00831479
0.0268341 -0.0115273 -0.00491329
0.00982658 -0.0215429 -0.00245664
-0.00642507 -0.0224877 -0.00245664
-0.0041574 -0.00793685 -0.00680301
Vibration 4
-0.0117163 0.00453534 0.0134171
-0.0113384 0.0020787 0.0041574
-0.00982658 0.00075589 0.00585815
-0.00831479 0.00170075 0.00774788
-0.00491329 0.00340151 0.020976
-0.00869274 0.00264562 0.0317474
0.00188973 0.00736993 0.020976
-0.0100155 -0.000944863 0.0612271
-0.0115273 -0.00585815 0.0882502
-0.0103935 0.00661404 0.000188973
-0.0198421 0.0321253 -0.0188973
-0.0096376 0.0302356 -0.0315584
0.0103935 0.00188973 -0.0249444
0.0170075 -0.0217318 -0.00888171
0.0062361 -0.0185193 0.00359048
0.0219208 0.00113384 -0.0379835
-0.0096376 -0.000566918 0.00793685
-0.0130391 -0.00283459 0.0102045
-0.0126612 -0.00699199 0.0145509
-0.00925966 -0.00869274 0.0164406
-0.00604712 -0.00529123 0.013984
-0.0062361 -0.00113384 0.00982658
-0.00888171 -0.0153068 0.020787
0.0585815 -0.041574 -0.0170075
-0.020976 0.0100155 -0.000944863
0.0134171 0.0062361 -0.0198421
0.013795 0.00548021 -0.0196532
0.000566918 0.000566918 -0.0128501
-0.0141729 -0.00377945 -0.00718096
0.0279679 0.00925966 -0.0272121
0.0289128 0.00812582 -0.027401
0.0164406 0.00359048 -0.020787
0.00226767 -0.000188973 -0.013606
-0.0296687 -0.0122832 -0.0166296
0.0387394 0.00396842 -0.0334482
-0.0264562 0.013984 0.0020787
-0.0132281 0.00113384 -0.00170075
-0.00774788 0.013795 -0.00774788
-0.0340151 0.0532903 -0.0224877
-0.0160627 0.0491329 -0.0453534
0.0300466 -0.0417629 -0.00566918
0.0111494 -0.0366607 0.0164406
-0.0158737 -0.00188973 0.00888171
-0.0153068 -0.00944863 0.0164406
-0.00321253 -0.0062361 0.0153068
-0.00377945 0.000944863 0.00793685
-0.00340151 -0.0198421 0.0153068
-0.0103935 -0.0215429 0.02759
-0.0122832 -0.0109604 0.0232436
0.0708647 -0.041196 -0.0234326
0.0389284 -0.0670853 0.0153068
0.0925966 -0.0461093 -0.0294797
0.0383614 0.0128501 -0.0323143
0.0393063 0.0105825 -0.0325033
0.0173855 0.00283459 -0.0211649
-0.0075589 -0.00396842 -0.00850377
0.00585815 0.00831479 0.0107714
Vibration 5
-0.00661404 0.00377945 0.020598
-0.00642507 0.00434637 0.0336371
-0.00699199 0.00472431 0.0230547
-0.00736993 0.00510226 0.0143619
-0.0096376 0.0062361 0.0075589
-0.00812582 0.00548021 0.00642507
-0.0109604 0.00869274 0.00188973
-0.00718096 0.00869274 -0.0132281
-0.0062361 0.0120942 -0.0296687
0.000566918 0.00151178 0.0141729
0.0389284 -0.0105825 0.0326923
0.0517785 -0.0153068 0.0257003
0.0243775 -0.00812582 -0.000566918
-0.0156847 0.00434637 -0.0200311
-0.0268341 0.00869274 -0.0122832
0.0425188 -0.0153068 -0.00321253
-0.00793685 0.00188973 0.0111494
0.00566918 0.0217318 0.00075589
0.00491329 0.0117163 -0.0158737
-0.00982658 -0.0183303 -0.0215429
-0.0238105 -0.0357158 -0.0111494
-0.0226767 -0.0251334 0.00510226
-0.0109604 -0.0319364 -0.0391173
0.0062361 -0.000566918 -0.0434637
-0.0124722 0.00736993 0.0120942
0.00585815 0.00566918 -0.000377945
0.00661404 0.00604712 -0.00075589
-0.000566918 0.00377945 0.00359048
-0.00680301 0.00132281 0.00718096
0.013795 0.00831479 -0.00548021
0.013606 0.00831479 -0.00529123
0.00604712 0.00604712 -0.00075589
-0.000944863 0.00396842 0.00377945
-0.0115273 -0.00491329 0.00510226
0.0192752 0.00377945 -0.00831479
-0.0238105 0.00793685 0.0196532
-0.00548021 0.00453534 0.0470542
-0.0200311 0.00718096 0.0168186
0.0591484 -0.0158737 0.0521564
0.0822031 -0.0243775 0.0398732
-0.0370386 0.0100155 -0.0404401
-0.0570697 0.0171965 -0.0264562
0.0173855 0.0442196 0.00529123
0.0160627 0.0270231 -0.0241885
-0.0351489 -0.0580146 -0.0158737
-0.0336371 -0.0387394 0.0130391
-0.00774788 -0.0359048 -0.0457314
-0.0251334 -0.0366607 -0.041385
-0.00075589 -0.0338261 -0.0445975
0.0249444 -0.00529123 -0.0440306
0.00944863 0.00453534 -0.0876833
-0.0387394 0.00888171 -0.0262672
0.0198421 0.0100155 -0.00888171
0.0190862 0.0100155 -0.00869274
0.00566918 0.00604712 -0.000377945
-0.00661404 0.0020787 0.00718096
-0.0102045 0.00888171 0.000188973
Vibration 6
-0.0113384 0.00359048 -0.00566918
-0.0111494 -0.00396842 0.00075589
-0.00604712 -0.00718096 0.00680301
-0.000944863 -0.00434637 0.00831479
-0.00264562 0.00188973 0.000377945
-0.00699199 0.00604712 -0.00680301
-0.000566918 0.00340151 0
-0.00642507 0.0124722 -0.0158737
-0.00566918 0.0179524 -0.0239995
-0.0154958 0.00661404 -0.0103935
-0.0285349 0.0173855 -0.020976
-0.0260782 0.0158737 -0.0202201
-0.00907068 0.00340151 -0.00831479
0.00075589 -0.00453534 -0.00075589
-0.00302356 -0.00226767 -0.0020787
-0.00434637 0.000944863 -0.00718096
-0.0062361 -0.00661404 0.00548021
-0.00245664 0.0576366 -0.00151178
-0.00302356 0.0719986 -0.00812582
-0.0075589 0.0217318 -0.0075589
-0.0113384 -0.0461093 -0.000377945
-0.0107714 -0.0593374 0.0062361
-0.00831479 0.0434637 -0.0149288
0.034582 -0.0304246 0.0249444
0.0190862 -0.0145509 0.00793685
0.00491329 -0.0119053 0.0100155
0.00812582 -0.00793685 0.00718096
0.0102045 -0.0062361 0.0075589
0.00907068 -0.00793685 0.0107714
0.0096376 -0.00661404 0.00434637
0.0132281 -0.00359048 0.00170075
0.0154958 -0.00188973 0.0020787
0.013984 -0.00340151 0.00491329
0.0171965 -0.0130391 0.0173855
-0.0075589 -0.0134171 0.013606
0.0239995 -0.0211649 0.00566918
-0.0160627 -0.00661404 -0.000188973
0.0175745 -0.0236216 0.00548021
-0.0400622 0.0260782 -0.0283459
-0.0357158 0.0232436 -0.02759
0.0109604 -0.0122832 0.0062361
0.00434637 -0.00793685 0.00359048
0.000944863 0.0976988 -0.00188973
0.000377945 0.124155 -0.013984
-0.0147399 -0.0871164 0
-0.0145509 -0.108281 0.0111494
-0.0262672 0.047999 -0.0198421
0.00245664 0.0476211 -0.013606
-0.00226767 0.05518 -0.0164406
0.0432747 -0.0364717 0.0309915
0.0160627 -0.0542351 0.0515895
0.0719986 -0.0226767 0.0143619
0.0075589 -0.00812582 0.0041574
0.0143619 -0.00264562 -0.000377945
0.0183303 0.000377945 0
0.0156847 -0.0020787 0.00510226
0.00340151 0.000377945 0.00434637
Vibration 7
0.00604712 -0.00170075 -0.0166296
0.00585815 -0.00453534 -0.0124722
0.00793685 -0.00548021 -0.00321253
0.00944863 -0.00529123 0.00566918
0.00774788 -0.00604712 -0.000377945
0.00680301 -0.000944863 -0.0183303
0.00793685 -0.0124722 0.0105825
0.00793685 0.00453534 -0.0376055
0.00907068 0.0102045 -0.0559359
0.00075589 0.000377945 -0.013984
-0.0175745 0.00113384 -0.0194642
-0.0247554 0.00264562 -0.0111494
-0.0122832 0.00377945 0.00302356
0.00548021 0.00377945 0.00831479
0.0115273 0.00245664 -0.000566918
-0.020598 0.00491329 0.0103935
0.00793685 -0.00453534 -0.00302356
0.00850377 -0.0100155 -0.00302356
0.00831479 -0.000944863 -0.00396842
0.00793685 0.013795 -0.00510226
0.0075589 0.0162516 -0.00491329
0.0075589 0.00699199 -0.00396842
0.0075589 0.0283459 -0.0062361
0.00264562 -0.00264562 0.0372276
-0.0353379 -0.00359048 0.0338261
0.0396842 -0.0103935 -0.0190862
0.0124722 -0.0041574 -0.00453534
-0.0020787 -0.00302356 0.0132281
0.0096376 -0.00113384 0.013606
-0.000566918 -0.00283459 -0.00907068
-0.0289128 -0.00113384 0.00604712
-0.0438416 0.000188973 0.0241885
-0.0294797 -0.000566918 0.027779
0.0128501 0.00453534 0.0149288
0.120753 -0.0222988 -0.0680301
-0.113195 -0.000944863 0.0863605
0.0041574 -0.00529123 -0.0179524
-0.117163 -0.0041574 0.0844708
-0.0262672 0 -0.0296687
-0.0393063 0.00283459 -0.0153068
0.0143619 0.00529123 0.0187083
0.0251334 0.00340151 0.00283459
0.00888171 -0.0200311 -0.00226767
0.00850377 -0.00434637 -0.00396842
0.00699199 0.0266451 -0.00566918
0.00736993 0.00944863 -0.00377945
-0.00188973 0.0359048 0.00302356
0.0145509 0.0385504 -0.0147399
0.0096376 0.0232436 -0.00793685
-0.00396842 -0.00510226 0.0440306
-0.00226767 -0.00925966 0.0572587
0.0291018 0.00075589 0.0292908
0.0134171 -0.00359048 -0.0239995
-0.0387394 -0.000188973 0.00321253
-0.0655735 0.00245664 0.0355268
-0.0396842 0.00075589 0.0410071
0.00925966 -0.0168186 0.0234326
Vibration 8
-0.013984 0.00377945 0.00491329
-0.0132281 -0.00491329 0.0119053
-0.00642507 -0.00925966 0.0105825
-0.000188973 -0.00566918 0.0134171
0.000944863 -0.000944863 0.0194642
-0.0075589 0.0075589 0.0041574
0.0119053 -0.00491329 0.0364717
-0.00585815 0.0224877 -0.013606
-0.00434637 0.0376055 -0.0302356
-0.0171965 0.00718096 -0.00245664
-0.00188973 0.00151178 0.00548021
0.0062361 -0.00264562 0.00566918
-0.00151178 -0.00151178 -0.0020787
-0.0224877 0.00793685 -0.0141729
-0.0302356 0.0120942 -0.0143619
0.013795 -0.00982658 0.00264562
-0.00680301 -0.0117163 0.00510226
-0.00170075 -0.0536682 0.00434637
-0.0020787 -0.0362827 -0.00226767
-0.00774788 0.0239995 -0.00850377
-0.0126612 0.0576366 -0.0075589
-0.0120942 0.0377945 -0.000566918
-0.00869274 0.0548021 -0.0164406
0.0257003 -0.0249444 0.00850377
0.00661404 -0.0134171 0.00812582
0.00472431 -0.0115273 0.00188973
0.00699199 -0.00642507 -0.000566918
0.00396842 -0.00642507 0.00321253
-0.00434637 -0.00869274 0.00585815
0.0151178 -0.00321253 -0.00736993
0.020409 -0.000188973 -0.0107714
0.0175745 0 -0.0075589
0.00925966 -0.00359048 -0.000566918
-0.0147399 -0.00982658 -0.00151178
0.0020787 -0.0149288 -0.00075589
0.0308025 -0.0217318 -0.00699199
-0.0188973 -0.00812582 0.0141729
0.0449755 -0.0260782 -0.020598
0.00529123 -0.000377945 0.0122832
0.0196532 -0.00774788 0.0126612
-0.0321253 0.0113384 -0.0226767
-0.0455424 0.0181414 -0.0224877
0.00283459 -0.0971319 0.00888171
0.00170075 -0.0680301 -0.00245664
-0.0173855 0.100911 -0.0119053
-0.0160627 0.0633058 0.000566918
-0.0294797 0.0742662 0.0100155
0.00226767 0.0816362 -0.0430858
-0.000566918 0.0353379 -0.0230547
0.048377 -0.0383614 0.020409
0.0096376 -0.0447865 -0.00226767
0.0296687 -0.00359048 0.0124722
0.0171965 -0.00340151 -0.00982658
0.0264562 0.00226767 -0.0158737
0.0217318 0.00264562 -0.0103935
0.00699199 -0.00359048 0.00188973
0.020787 -0.0113384 0.0447865
Vibration 9
-0.00812582 0.00548021 -0.0291018
-0.00718096 -0.000377945 -0.0476211
-0.000188973 -0.00491329 -0.0326923
0.00699199 -0.00264562 -0.0151178
0.0128501 -0.00075589 0.00377945
0.00170075 0.00604712 -0.00075589
0.0247554 -0.00642507 0.0253223
0.00113384 0.0179524 0.034393
0 0.0304246 0.0665184
-0.013606 0.00812582 -0.0258892
0.0160627 -0.0230547 0.00188973
0.0245664 -0.0309915 0.0168186
0.000188973 -0.00793685 0.00264562
-0.0372276 0.027401 -0.0298577
-0.0427078 0.0330702 -0.0434637
0.0188973 -0.0239995 0.0262672
0.000377945 -0.00699199 -0.0219208
-0.013606 0.0126612 -0.013795
-0.0128501 0.0194642 0.00283459
0.00226767 0.00604712 0.0109604
0.0164406 -0.0154958 0.00321253
0.0151178 -0.020976 -0.0134171
0.00340151 0.0156847 0.0294797
0.000188973 -0.00566918 0.0134171
-0.00264562 0.000377945 -0.00396842
0.0020787 -0.00132281 -0.00151178
-0.00283459 -0.00453534 0.0020787
0.00302356 -0.00302356 -0.00283459
0.00944863 -0.000188973 -0.00699199
-0.013795 -0.00831479 0.0102045
-0.0177634 -0.0107714 0.0126612
-0.00982658 -0.00925966 0.00699199
0.00075589 -0.00510226 -0.000944863
0.0154958 0.00359048 -0.00359048
0.0096376 0.000377945 -0.00264562
-0.0117163 0.00604712 0.00113384
-0.0117163 -0.00245664 -0.0642507
-0.0134171 0.00869274 0.00585815
0.034204 -0.041385 0.0111494
0.0506447 -0.055369 0.0394953
-0.0599043 0.048377 -0.0427078
-0.0685971 0.0559359 -0.0650066
-0.0255113 0.0236216 -0.020409
-0.0239995 0.0359048 0.00888171
0.0281569 -0.0270231 0.0096376
0.0260782 -0.0349599 -0.0198421
0.00151178 0.013795 0.0236216
0.0175745 0.0115273 0.0427078
-0.00793685 0.0298577 0.0370386
0.0262672 -0.0287238 0.0396842
-0.00642507 -0.0128501 -0.0387394
-0.0291018 0.0349599 0.0332592
-0.0185193 -0.00907068 0.013984
-0.0264562 -0.013795 0.0190862
-0.0120942 -0.0107714 0.00850377
0.00699199 -0.00377945 -0.00566918
0.0309915 -0.0111494 0.0313695
Vibration 10
0.0102045 -0.000566918 0.0132281
0.0109604 -0.00510226 0.0213539
0.0120942 -0.00585815 0.0126612
0.0117163 -0.00566918 0.0109604
0.0183303 -0.0103935 0.0404401
0.0120942 0.00075589 0.0109604
0.0391173 -0.0287238 0.089951
0.0149288 0.0162516 -0.0243775
0.0173855 0.0334482 -0.0591484
0.00585815 0.00377945 0.00604712
-0.000566918 0.00831479 0.00151178
-0.00604712 0.0119053 -0.00151178
-0.00359048 0.0107714 0.000566918
0.00226767 0.00699199 0.00472431
0.00661404 0.0041574 0.00699199
-0.00925966 0.0147399 -0.00302356
0.0115273 -0.00113384 0.00907068
0.0128501 0.0179524 0.00718096
0.0126612 0.0149288 0.00604712
0.0117163 -0.00774788 0.00661404
0.0103935 -0.0222988 0.00850377
0.0102045 -0.0179524 0.00982658
0.0117163 -0.0179524 0.00585815
0.013984 -0.0020787 0.0175745
-0.0396842 0.0211649 -0.034771
-0.0154958 0.0119053 -0.0111494
-0.0185193 -0.00850377 -0.00491329
-0.0113384 -0.0119053 -0.0200311
-0.0166296 -0.0105825 -0.0228657
-0.0281569 -0.0168186 0.0147399
-0.02759 -0.0285349 0.0166296
-0.0145509 -0.0311805 -0.00113384
-0.00680301 -0.0222988 -0.0194642
-0.0508336 -0.0162516 -0.0453534
0.00170075 0.0260782 -0.00245664
-0.0103935 0.0540462 -0.0602823
0.00831479 -0.00661404 0.0291018
0.02759 0.0685971 -0.0595264
-0.00113384 0.00869274 0.00113384
-0.0119053 0.0153068 -0.00529123
0.00340151 0.00680301 0.00566918
0.0109604 0.00245664 0.00944863
0.013606 0.0338261 0.00680301
0.013606 0.0292908 0.00453534
0.00944863 -0.0383614 0.00888171
0.00925966 -0.0292908 0.0107714
0.0177634 -0.0257003 -0.0062361
0.00680301 -0.0287238 0.0160627
0.0113384 -0.00888171 0.00718096
0.0141729 -0.00321253 0.0192752
0.00566918 -0.0130391 0.0376055
0.0381725 -0.00151178 0.0096376
-0.0353379 -0.013606 0.0272121
-0.0357158 -0.0351489 0.0315584
-0.0115273 -0.0396842 -0.00113384
0.00151178 -0.0251334 -0.0328812
0.0514005 -0.0389284 0.107147
Vibration 11
0.00264562 -0.00453534 -0.0279679
0.00264562 0.00283459 -0.0383614
-0.00302356 0.0062361 -0.0151178
-0.00736993 0.00075589 0.0154958
-0.00548021 -0.0156847 0.0251334
-0.00151178 -0.0105825 -0.00566918
0.00113384 -0.0340151 0.062172
-0.00132281 -0.0145509 -0.0124722
-0.000944863 -0.0188973 -0.0221098
0.00510226 -0.00642507 -0.0253223
-0.00472431 -0.013984 -0.0230547
-0.00510226 -0.0179524 -0.00812582
0.00377945 -0.0134171 0.00396842
0.0141729 -0.00604712 0.00264562
0.0145509 -0.00359048 -0.0120942
0.00226767 -0.0187083 0.0211649
-0.00321253 0.0153068 -0.0122832
-0.00982658 0.0251334 -0.00869274
-0.00944863 0.0164406 -0.000377945
-0.00264562 -0.00226767 0.0041574
0.00377945 -0.00132281 -0.000188973
0.00321253 0.00850377 -0.00850377
-0.00151178 -0.0279679 0.0143619
-0.0249444 0.0149288 0.00736993
-0.00944863 0.00302356 0.0326923
-0.0020787 0.00642507 0.00774788
0.00434637 0.0158737 0.0020787
-0.0170075 0.0096376 0.0168186
-0.0245664 0.00888171 0.0156847
0.0359048 0.0266451 -0.020787
0.0434637 0.0311805 -0.0255113
0.0145509 0.0236216 -0.0062361
-0.0160627 0.0124722 0.0151178
-0.0366607 0.0168186 0.00510226
0.000377945 -0.00226767 -0.00321253
0.0298577 -0.0177634 0.00925966
0.0075589 0.00604712 -0.0612271
0.0585815 -0.0291018 -0.0219208
-0.0122832 -0.0173855 -0.0334482
-0.0120942 -0.0238105 -0.00642507
0.0224877 -0.00321253 0.0132281
0.0232436 0.00151178 -0.0126612
-0.0154958 0.0368497 -0.0120942
-0.0143619 0.0221098 0.00264562
0.00944863 -0.0103935 0.00321253
0.00793685 0.00850377 -0.0115273
0.0175745 -0.047999 -0.0143619
-0.0100155 -0.0559359 0.0436527
-0.0103935 -0.00434637 0.0219208
-0.0383614 0.0162516 0.0111494
-0.00831479 0.0362827 -0.0126612
-0.047999 0.0153068 0.0151178
0.0548021 0.0308025 -0.0340151
0.0704868 0.0398732 -0.0436527
0.0170075 0.0260782 -0.00831479
-0.0355268 0.0075589 0.0289128
0.00642507 -0.0402512 0.0780457
Vibration 12
-0.0171965 0.0126612 -0.00472431
-0.0170075 0.00151178 -0.00718096
-0.00831479 -0.0041574 -0.00812582
0.000377945 0.000377945 -0.00718096
0.00264562 0.00925966 0.00113384
-0.00907068 0.0162516 -0.00302356
0.0141729 0.00869274 0.0132281
-0.00812582 0.0302356 -0.00264562
-0.00736993 0.0453534 -0.00359048
-0.0145509 0.0105825 -0.00226767
-0.0340151 0.0302356 -0.0202201
-0.00907068 0.0143619 -0.00774788
0.0338261 -0.0181414 0.0211649
0.0510226 -0.0353379 0.0364717
0.0264562 -0.0192752 0.0251334
0.0659514 -0.0396842 0.0408181
-0.00850377 -0.0122832 -0.00585815
-0.0126612 -0.0132281 -0.00302356
-0.0126612 -0.00661404 0.00132281
-0.00869274 0.000944863 0.00283459
-0.00453534 -0.00604712 0.000566918
-0.00472431 -0.0128501 -0.00396842
-0.00869274 0.0198421 0.00736993
-0.041196 0.0368497 -0.0542351
0.00340151 -0.00434637 -0.00529123
0.00340151 -0.00510226 -0.0020787
-0.00075589 -0.00680301 0.000566918
0.00812582 -0.0041574 -0.00566918
0.00774788 -0.00359048 -0.00642507
-0.0126612 -0.0109604 0.00925966
-0.0132281 -0.0124722 0.00982658
0.000377945 -0.00907068 0.00075589
0.0111494 -0.00491329 -0.00699199
0.0107714 -0.00680301 -0.00377945
0.00831479 -0.00434637 -0.00321253
-0.0020787 -0.00151178 -0.0020787
-0.0245664 -0.00264562 -0.00850377
-0.00529123 0.000188973 0.00170075
-0.0680301 0.0570697 -0.0425188
-0.0226767 0.0272121 -0.0196532
0.0865495 -0.0638727 0.0597153
0.0410071 -0.0323143 0.0372276
-0.0162516 -0.0171965 -0.00453534
-0.0154958 -0.00566918 0.00321253
-0.00113384 -0.00434637 0.0020787
-0.00188973 -0.0164406 -0.00566918
-0.0196532 0.0308025 0.0224877
0.00340151 0.034582 -0.00359048
-0.0100155 0.0117163 0.00699199
-0.0593374 0.0563138 -0.0778567
0.00642507 0.0978878 -0.124722
-0.144753 0.0105825 -0.0262672
-0.020787 -0.0126612 0.0153068
-0.0232436 -0.0158737 0.0170075
0.0020787 -0.00925966 0
0.020409 -0.00264562 -0.013795
0.0221098 0.00340151 0.0185193
Vibration 13
-0.000566918 -0.0102045 -0.00359048
-0.00075589 -0.0111494 -0.00245664
0.00283459 -0.0128501 0.00699199
0.00566918 -0.0103935 0.0109604
0.00642507 -0.0128501 0.0124722
0.00321253 -0.00888171 0.00170075
0.00850377 -0.0177634 0.0224877
0.00359048 -0.00491329 0.000188973
0.00377945 -0.0020787 -0.00170075
-0.00283459 -0.00907068 -0.00548021
-0.00642507 -0.0096376 -0.0062361
-0.00642507 -0.0103935 -0.00377945
-0.00340151 -0.0113384 -0.00113384
-0.000944863 -0.0102045 -0.000944863
-0.000944863 -0.0096376 -0.00340151
-0.00226767 -0.0132281 0.00264562
0.00321253 -0.0226767 0.00793685
0.00661404 -0.0262672 0.00585815
0.00642507 -0.0173855 0.00113384
0.00283459 -0.00453534 -0.00132281
-0.000188973 -0.0160627 0.00170075
0.000188973 -0.0253223 0.00642507
0.0020787 0.0328812 -0.00718096
-0.00869274 -0.00680301 -0.00188973
0.00302356 0.0170075 -0.0591484
-0.00661404 0.00925966 -0.00774788
0.00396842 0.000188973 -0.0124722
-0.013795 0.00283459 0.0109604
0.0158737 -0.00434637 0.0326923
0.0257003 0.0145509 -0.0402512
0.0219208 0.0321253 -0.0428968
-0.00774788 0.0313695 -0.0120942
-0.0258892 0.0188973 0.0151178
0.062361 -0.00245664 0.0648176
-0.0396842 0.0268341 0.0251334
-0.048188 0.068786 -0.0334482
-0.0020787 -0.0120942 -0.00793685
-0.0810692 0.096754 0.0230547
-0.00869274 -0.0096376 -0.00869274
-0.00831479 -0.0103935 -0.00434637
0.000944863 -0.0100155 0.00132281
0.00075589 -0.00944863 -0.00283459
0.00982658 -0.0323143 0.00774788
0.00907068 -0.0170075 -0.000566918
-0.00340151 -0.013984 0
-0.00226767 -0.0306136 0.00850377
-0.0219208 0.0840928 0.0869274
0.0173855 0.107903 -0.089762
0.00888171 -0.0534792 -0.0215429
-0.00982658 -0.00680301 -0.00151178
-0.00566918 -0.00302356 -0.00736993
-0.0147399 -0.00642507 0.000188973
0.0423299 0.0126612 -0.061983
0.0400622 0.0434637 -0.0678412
-0.0149288 0.041196 -0.0100155
-0.0442196 0.020598 0.0381725
0.00944863 -0.020787 0.0317474
Vibration 14
-0.00283459 -0.00321253 0.00529123
-0.00264562 -0.00529123 0.00566918
-0.000377945 -0.00642507 0.00245664
0.00170075 -0.00472431 0.000188973
0.00245664 -0.00245664 0.00170075
-0.000188973 -0.00132281 0.00245664
0.00377945 -0.00170075 0.0020787
0.000188973 0.00359048 -0.000566918
0.000566918 0.00907068 -0.00359048
-0.0041574 -0.00245664 0.00434637
-0.00396842 0.000188973 0.00283459
-0.00264562 0.000188973 0.000377945
-0.00188973 -0.00283459 -0.000566918
-0.00264562 -0.00529123 0.00075589
-0.00377945 -0.00510226 0.00321253
0.000566918 -0.00321253 -0.00302356
-0.000377945 -0.00718096 0.000944863
0 -0.0128501 0.000566918
0.000188973 -0.00132281 -0.000566918
-0.00075589 0.0147399 -0.00151178
-0.00151178 0.0158737 -0.00170075
-0.00113384 0.00491329 -0.000566918
-0.00113384 0.00888171 -0.00850377
-0.00188973 -0.00491329 -0.00774788
0.00699199 0.000377945 -0.0185193
0.0020787 -0.00151178 -0.00226767
0.00302356 -0.0041574 -0.00245664
-0.000188973 -0.00264562 0.00302356
0.00831479 -0.00396842 0.00831479
0.00529123 -0.00132281 -0.00774788
0.00283459 0.00264562 -0.00736993
-0.00264562 0.00340151 -0.000566918
-0.0041574 0.00113384 0.00472431
0.0234326 -0.00340151 0.0188973
-0.00699199 0.00340151 0.00699199
-0.0126612 0.0154958 -0.0075589
-0.0041574 -0.00604712 0.00774788
-0.0268341 0.0236216 0.0113384
-0.00453534 0.00226767 0.00321253
-0.00226767 0.00226767 -0.000944863
-0.0020787 -0.0075589 0
-0.00453534 -0.00699199 0.0041574
0.000944863 -0.0247554 0.00170075
-0.000377945 -0.00529123 0
-0.000944863 0.0255113 -0.00170075
-0.00170075 0.00699199 0
-0.0132281 -0.177256 -0.43218
0.00510226 -0.27949 0.346387
0.00377945 0.447109 0.0428968
0 -0.00377945 -0.0105825
-0.0020787 -0.00510226 -0.00925966
-0.00529123 -0.00699199 -0.00718096
0.00831479 -0.00226767 -0.0124722
0.00472431 0.00491329 -0.0122832
-0.00529123 0.00585815 0.000377945
-0.00718096 0.0020787 0.0096376
0.00434637 -0.00226767 0.00264562
Vibration 15
0.000377945 0.00075589 -0.0181414
-0.000188973 0.00151178 -0.00850377
-0.000566918 0.00151178 0.0170075
-0.000944863 0.00132281 0.0243775
-0.00793685 -0.00113384 0.00170075
-0.00226767 -0.0020787 -0.00831479
-0.0151178 0.000566918 -0.00831479
-0.00377945 -0.0183303 -0.00245664
-0.00529123 -0.0434637 0.00566918
-0.000566918 0.00188973 -0.0228657
-0.00529123 -0.00396842 -0.0202201
-0.00566918 -0.00680301 -0.0103935
-0.00151178 -0.00283459 -0.00377945
-0.00151178 0.00680301 -0.0096376
-0.000377945 0.0075589 -0.0188973
0.00340151 -0.0111494 0.0141729
-0.000377945 0.000377945 0.0196532
0.00774788 -0.00359048 0.0141729
0.00774788 -0.00453534 0.00321253
-0.00170075 -0.000377945 -0.00170075
-0.0105825 0.0020787 0.00377945
-0.00925966 0.00151178 0.0147399
-0.00283459 0.000944863 -0.0160627
-0.00831479 0.00793685 0.0119053
-0.0508336 -0.00888171 0
-0.00982658 -0.0198421 0.0181414
-0.0319364 -0.0173855 0.0306136