[Molden Format]
[FREQ]
7.0
15.0
19.9
27.2
29.5
37.4
46.6
50.0
57.4
65.2
71.9
84.8
104.8
112.1
130.2
136.8
157.7
170.8
175.8
181.5
188.6
205.8
231.5
242.1
248.6
258.6
266.3
282.9
288.0
293.8
308.3
313.7
322.6
339.3
344.9
357.4
375.8
395.2
422.3
438.9
475.0
493.9
502.4
510.2
529.6
535.6
536.9
556.5
562.6
588.0
589.7
606.2
610.4
613.7
629.4
646.4
660.8
690.5
701.4
729.4
741.6
786.1
794.6
799.6
814.0
816.8
829.0
837.9
839.9
847.2
883.2
884.4
898.3
921.5
943.2
945.6
953.4
975.7
986.5
1006.1
1009.7
1016.2
1022.0
1027.2
1035.5
1046.6
1046.9
1071.3
1076.2
1077.6
1090.7
1127.3
1136.1
1140.0
1159.1
1167.6
1179.1
1181.6
1182.7
1197.0
1231.7
1245.6
1253.9
1257.2
1264.1
1269.3
1274.4
1283.2
1288.5
1298.2
1304.2
1309.8
1316.2
1322.6
1334.5
1334.9
1347.1
1350.9
1364.3
1369.8
1386.1
1396.9
1404.5
1426.0
1444.7
1456.0
1524.4
1534.3
1536.6
1545.1
1546.9
1568.2
1593.2
1608.2
1686.7
1701.6
1707.8
1718.3
1721.6
1738.6
1746.9
1875.9
1915.6
2415.1
2439.3
2626.6
2651.0
2656.1
2661.2
2664.1
2720.5
2729.5
2733.8
2736.6
2745.5
2748.4
2753.1
2753.7
2757.6
2768.0
2768.8
2772.7
2777.0
2781.8
2797.9
       
[FR-COORD]
C 0.465817 -3.22841 -1.31015
C 3.12958 -3.22841 -1.31015
C 4.30083 -0.865872 -1.31015
N 3.09216 1.34511 -1.16993
C 0.464873 1.42844 -0.920863
C -0.874943 -0.975666 -1.23361
N -0.329379 3.71804 -0.415173
C -3.52906 -1.05447 -1.52331
N -5.68713 -1.26593 -1.83795
C -0.836582 -5.679 -1.40615
C -0.34582 -7.35633 -3.39414
C -1.55883 -9.67559 -3.49845
C -3.27754 -10.3052 -1.57546
C -3.78814 -8.66099 0.420653
C -2.55718 -6.33625 0.484148
O -4.31084 -12.636 -1.89237
C 7.04055 -0.49114 -1.45414
C 7.97748 1.97968 -0.643074
C 10.6647 2.47441 -0.959981
C 12.2467 0.687293 -1.93678
C 11.2652 -1.72929 -2.62785
C 8.73583 -2.29885 -2.38653
C 14.9895 1.1807 -2.30244
C -6.24441 -13.3615 -0.175745
C -2.85916 4.43481 0.048377
C -3.87148 3.48088 2.66489
C -4.38832 5.75724 4.22127
C -3.81536 7.98145 2.88637
C -2.93153 7.3894 0.287616
C -5.28821 5.85267 6.67111
C -5.6089 8.22938 7.79417
C -5.03291 10.4326 6.47515
C -4.12603 10.3281 3.98921
O -2.4814 8.86036 -1.36363
O -4.04061 1.32659 3.31269
O -4.63777 3.70764 -1.75801
H 4.16722 -4.98113 -1.28275
H 6.70343 3.53133 -1.56072
H 0.978878 -6.81908 -4.87719
H -1.22114 -10.995 -5.03272
H -5.12815 -9.14193 1.89464
H -2.95459 -5.00626 2.01596
H 7.25069 2.4882 1.31884
H 11.3569 4.33446 -0.383803
H 12.5827 -3.14167 -3.37996
H 8.01508 -4.15551 -2.9578
H 16.1687 -0.131336 -1.19752
H 15.5568 3.09858 -1.73382
H 15.5543 0.971508 -4.29591
H -6.80698 -15.2204 -0.906313
H -7.83726 -12.0419 -0.254546
H -5.49551 -13.5352 1.74346
H -5.73853 4.12357 7.6944
H -6.32038 8.349 9.72037
H -5.29482 12.2617 7.37862
H -3.68345 12.0468 2.94741
H -4.09428 4.23393 -3.46179

[FR-NORM-COORD]
Vibration 1
-0.00075589 -0.00869274 0.0020787
-0.00075589 -0.00831479 -0.00812582
-0.00151178 -0.00812582 0.00529123
-0.00151178 -0.00907068 0.0200311
-0.00170075 -0.00982658 0.0196532
-0.00170075 -0.00982658 0.0202201
-0.00075589 -0.00888171 0.0166296
-0.00396842 -0.0119053 0.0419519
-0.00661404 -0.0143619 0.061983
0.000566918 -0.00925966 -0.00718096
-0.0126612 0.00736993 -0.0243775
-0.0111494 0.00718096 -0.034204
0.00396842 -0.0102045 -0.0264562
0.0173855 -0.0270231 -0.00925966
0.0154958 -0.0262672 0.000377945
0.00396842 -0.00869274 -0.0376055
-0.00170075 -0.00585815 0.00377945
-0.00113384 -0.0143619 0.0283459
-0.00245664 -0.00907068 0.0260782
-0.00434637 0.00321253 0.000377945
-0.00472431 0.0102045 -0.0232436
-0.00340151 0.00548021 -0.0211649
-0.00604712 0.0096376 -0.00377945
0.0160627 -0.0238105 -0.0304246
-0.000188973 -0.00472431 0.0126612
0.00132281 0.013795 0.0198421
0.00075589 0.0249444 0.00340151
0.000566918 0.0154958 -0.0122832
0.00075589 -0.00302356 -0.00793685
0.000188973 0.0423299 0.00264562
-0.000188973 0.0502667 -0.0143619
-0.000188973 0.0410071 -0.0300466
0.000188973 0.0232436 -0.0291018
0.00132281 -0.0147399 -0.0183303
0.00340151 0.0183303 0.0357158
-0.00170075 -0.0162516 0.0185193
-0.000188973 -0.00812582 -0.0243775
-0.00491329 -0.00548021 0.0470542
-0.0241885 0.020787 -0.0298577
-0.0213539 0.0200311 -0.0476211
0.0291018 -0.0404401 -0.00302356
0.0257003 -0.0393063 0.0141729
0.00340151 -0.0351489 0.0351489
-0.00170075 -0.0153068 0.0455424
-0.0062361 0.0194642 -0.0434637
-0.0041574 0.0111494 -0.0391173
-0.00113384 -0.000188973 -0.020409
-0.00604712 0.00453534 0.0134171
-0.0122832 0.0298577 -0.0075589
0.0115273 -0.0177634 -0.0421409
0.0151178 -0.0236216 -0.00812582
0.0294797 -0.0396842 -0.0370386
0 0.0495108 0.0147399
-0.000566918 0.0640617 -0.0154958
-0.000566918 0.0474321 -0.0430858
0.000188973 0.0158737 -0.041385
-0.00377945 -0.0257003 0.0149288
Vibration 2
-0.00888171 -0.00226767 -0.00453534
-0.00888171 0.00245664 0.00226767
-0.0128501 0.00453534 -0.00151178
-0.0171965 0.00264562 -0.0111494
-0.0175745 -0.00151178 -0.013606
-0.0130391 -0.00434637 -0.0111494
-0.0213539 -0.00226767 -0.0175745
-0.0122832 -0.00888171 -0.0170075
-0.0111494 -0.0126612 -0.0222988
-0.00396842 -0.00491329 -0.00491329
0.00718096 -0.00699199 -0.000566918
0.0128501 -0.00982658 -0.00132281
0.00718096 -0.0107714 -0.00661404
-0.0041574 -0.00850377 -0.0113384
-0.00944863 -0.00566918 -0.0103935
0.013984 -0.013795 -0.00661404
-0.0130391 0.00869274 0.00736993
-0.020976 0.0154958 -0.00340151
-0.0198421 0.0173855 0.00869274
-0.0117163 0.0130391 0.0298577
-0.00434637 0.00736993 0.0394953
-0.00510226 0.00548021 0.0281569
-0.0100155 0.0141729 0.0440306
0.00888171 -0.0153068 -0.0130391
-0.020598 -0.00453534 -0.00907068
-0.00283459 0.00188973 0
0.0266451 0.00566918 0.00472431
0.0171965 0.00226767 -0.00510226
-0.0192752 -0.00396842 -0.0160627
0.061794 0.0115273 0.0173855
0.0884392 0.013795 0.0202201
0.0789905 0.0102045 0.0102045
0.0427078 0.00434637 -0.00283459
-0.0425188 -0.00850377 -0.0264562
-0.0117163 0.00302356 0.00170075
-0.0291018 -0.0120942 0.00321253
-0.00604712 0.00434637 0.00944863
-0.0181414 0.00812582 -0.0188973
0.0115273 -0.00642507 0.00359048
0.0217318 -0.0115273 0.0020787
-0.00869274 -0.00925966 -0.0156847
-0.0181414 -0.0041574 -0.013984
-0.0323143 0.0264562 -0.0100155
-0.0258892 0.0222988 0.000188973
0.00188973 0.00434637 0.0563138
0.000944863 0.000944863 0.0357158
-0.0154958 0.0249444 0.0625499
-0.0164406 0.0196532 0.0319364
0.00359048 -0.00132281 0.0495108
0.0164406 -0.0181414 -0.0119053
0.00604712 -0.0192752 -0.0219208
0.00151178 -0.0100155 -0.0096376
0.068975 0.0143619 0.0251334
0.116785 0.0183303 0.0304246
0.100155 0.0120942 0.0126612
0.0351489 0.00170075 -0.0105825
-0.0421409 -0.0117163 -0.000944863
Vibration 3
-0.000944863 -0.00321253 -0.00925966
-0.000944863 -0.00510226 -0.00831479
-0.000377945 -0.00585815 -0.00226767
0.00170075 -0.00491329 0.000377945
0.00075589 -0.00359048 -0.00680301
0.000377945 -0.0020787 -0.0117163
0.0020787 -0.00340151 -0.00529123
0.00113384 0.000188973 -0.0187083
0.0020787 0.00264562 -0.0257003
-0.00321253 -0.00226767 -0.00321253
-0.00113384 -0.0120942 0.00566918
-0.00302356 -0.0115273 0.0145509
-0.00680301 -0.00113384 0.0143619
-0.00944863 0.00888171 0.00548021
-0.0075589 0.00812582 -0.00340151
-0.00793685 -0.00188973 0.0239995
0.000188973 -0.0041574 0.00472431
-0.000377945 -0.0279679 0.076156
-0.00340151 -0.013606 0.0765339
-0.00680301 0.020409 0.00793685
-0.0062361 0.0394953 -0.0599043
-0.00340151 0.0262672 -0.0591484
-0.0109604 0.0385504 0.0020787
-0.0103935 0.00718096 0.0253223
0.00188973 -0.00170075 -0.00812582
-0.00170075 -0.00434637 -0.0105825
0.00472431 -0.00604712 -0.00585815
0.00907068 -0.00491329 -0.00188973
0.00585815 -0.00188973 -0.00359048
0.00736993 -0.00869274 -0.00472431
0.0145509 -0.0102045 0.000377945
0.0190862 -0.00907068 0.00434637
0.0162516 -0.0062361 0.00321253
0.00661404 0 -0.00170075
-0.00831479 -0.00510226 -0.0151178
0.00359048 0.00283459 -0.0113384
-0.000944863 -0.00510226 -0.00982658
-0.0096376 -0.00453534 0.120942
0.00188973 -0.0202201 0.00548021
-0.00113384 -0.0190862 0.0215429
-0.0126612 0.0171965 0.00529123
-0.00925966 0.0156847 -0.0103935
0.0062361 -0.0837149 0.0914627
-0.00226767 -0.0315584 0.133037
-0.00850377 0.0659514 -0.113384
-0.00453534 0.0425188 -0.110549
0.00113384 0.00793685 -0.0468652
-0.0115273 0.0226767 0.0559359
-0.0255113 0.100722 -0.00850377
-0.0096376 0.00359048 0.034204
-0.0100155 0.00718096 0.0162516
-0.0128501 0.0170075 0.0272121
0.00377945 -0.0096376 -0.00793685
0.0168186 -0.0122832 0.00132281
0.0247554 -0.0102045 0.00831479
0.0194642 -0.00529123 0.0062361
0.00680301 0.00359048 -0.0102045
Vibration 4
-0.00944863 0.00925966 -0.0257003
-0.0096376 0.00642507 -0.0360938
-0.00699199 0.00491329 -0.0272121
-0.00396842 0.00604712 -0.0185193
-0.00359048 0.00850377 -0.0158737
-0.00718096 0.0100155 -0.013795
-0.00113384 0.00907068 -0.0134171
-0.00925966 0.0105825 0.00434637
-0.0117163 0.0107714 0.020598
-0.0103935 0.00944863 -0.020787
-0.0396842 0.0200311 -0.0366607
-0.0328812 0.0158737 -0.0245664
0.00510226 0.000944863 0.00453534
0.0308025 -0.00718096 0.0177634
0.0221098 -0.00226767 0.00453534
0.0128501 -0.0041574 0.0166296
-0.00585815 -0.000377945 -0.0170075
-0.00283459 -0.00585815 -0.00377945
0.00170075 -0.0154958 0.0194642
0.00283459 -0.0188973 0.027401
-0.00170075 -0.0119053 0.00888171
-0.00585815 -0.00264562 -0.0130391
0.00850377 -0.0304246 0.0555579
0.0591484 -0.0268341 0.0589595
0.000188973 0.00869274 -0.00604712
0.00529123 0.00170075 -0.00642507
0.00151178 -0.00245664 -0.00170075
-0.00132281 0.00113384 0.00302356
-0.000377945 0.00793685 0.00170075
0.000566918 -0.00907068 -0.00188973
-0.00340151 -0.0120942 0.00302356
-0.00604712 -0.00850377 0.00793685
-0.00510226 -0.00170075 0.00812582
-0.000188973 0.0126612 0.00585815
0.0128501 0.000188973 -0.0096376
-0.00340151 0.0132281 -0.00453534
-0.0119053 0.00472431 -0.048377
0.0103935 0.00113384 -0.00869274
-0.0674632 0.0309915 -0.0574477
-0.05518 0.0234326 -0.0359048
0.0574477 -0.0173855 0.0385504
0.0417629 -0.00812582 0.0147399
-0.0156847 -0.00907068 -0.00736993
0.00453534 -0.0202201 0.0313695
-0.00151178 -0.013984 0.0134171
-0.00869274 0.00245664 -0.0262672
-0.00850377 -0.0370386 0.0659514
0.0111494 -0.0336371 0.0636838
0.0279679 -0.0302356 0.0610381
0.0602823 -0.0304246 0.0670853
0.0447865 -0.0417629 0.0984547
0.104313 -0.0243775 0.041574
0.00264562 -0.0120942 -0.00585815
-0.00434637 -0.0171965 0.00302356
-0.00925966 -0.0107714 0.0117163
-0.00736993 0.00113384 0.0119053
-0.00510226 0.0153068 -0.00453534
Vibration 5
-0.0156847 0.00434637 0.00113384
-0.0153068 0.000188973 0.00907068
-0.0107714 -0.00226767 0.0109604
-0.00661404 -0.000377945 0.0126612
-0.00718096 0.00359048 0.00982658
-0.0113384 0.00699199 -0.000377945
-0.00226767 0.00377945 0.0160627
-0.00982658 0.0154958 -0.0141729
-0.00888171 0.0241885 -0.0266451
-0.0122832 0.00302356 -0.00585815
0.0226767 -0.00642507 0.0102045
0.0434637 -0.0170075 0.0120942
0.027779 -0.0187083 -0.00226767
-0.013795 -0.00642507 -0.0232436
-0.0334482 0.00434637 -0.0247554
0.0578256 -0.0330702 0.00566918
-0.0103935 -0.00869274 0.00585815
-0.00188973 -0.0122832 0.00604712
-0.0020787 -0.0177634 -0.00491329
-0.0102045 -0.0198421 -0.0145509
-0.0181414 -0.0171965 -0.0126612
-0.0181414 -0.0119053 -0.00245664
-0.0111494 -0.0249444 -0.027779
0.0585815 -0.047999 0.000188973
-0.000944863 0.013984 0.00661404
-0.0185193 0.0149288 0
-0.0111494 0.0151178 0.00245664
0.00774788 0.0143619 0.00944863
0.0143619 0.0141729 0.0117163
-0.020787 0.0156847 -0.00113384
-0.0105825 0.0153068 0.00264562
0.00888171 0.0145509 0.00982658
0.0183303 0.013984 0.0132281
0.0291018 0.0149288 0.0164406
-0.0362827 0.0147399 -0.00566918
0.00377945 0.0258892 -0.00264562
-0.0181414 -0.00151178 0.0126612
-0.0020787 -0.00812582 0.0128501
0.0355268 -0.00585815 0.0219208
0.0729434 -0.0253223 0.0257003
-0.0296687 -0.00566918 -0.0374166
-0.0638727 0.0122832 -0.0394953
0.00736993 -0.013795 0.0096376
0.00472431 -0.0202201 -0.00529123
-0.0241885 -0.0190862 -0.0198421
-0.0247554 -0.00982658 -0.00132281
-0.00793685 -0.0302356 -0.0372276
-0.00396842 -0.02759 -0.0260782
-0.0221098 -0.0211649 -0.0313695
0.0941084 -0.0646286 0.0149288
0.0376055 -0.0750221 -0.0239995
0.048188 -0.0166296 0.00699199
-0.0359048 0.0164406 -0.00642507
-0.0179524 0.0156847 -0.000188973
0.0170075 0.0141729 0.0126612
0.0334482 0.0134171 0.0185193
0.013795 0.0268341 0.00075589
Vibration 6
-0.00264562 0.00226767 -0.0185193
-0.00264562 0.00302356 -0.0224877
-0.00283459 0.00321253 -0.0262672
-0.00188973 0.00359048 -0.0262672
-0.00151178 0.00283459 -0.0171965
-0.0020787 0.00302356 -0.0181414
0.000188973 0.00113384 -0.0075589
-0.00188973 0.00340151 -0.0185193
-0.00170075 0.00283459 -0.0200311
-0.000944863 0.00132281 -0.0122832
0.0270231 -0.0194642 0.0120942
0.0315584 -0.0221098 0.020409
0.00604712 -0.00359048 0.00359048
-0.0230547 0.0171965 -0.020976
-0.0255113 0.0185193 -0.0281569
0.0132281 -0.00831479 0.0147399
-0.00226767 -0.000188973 -0.0213539
0.000188973 -0.00642507 -0.00585815
0.00359048 -0.0132281 0.0120942
0.00377945 -0.0134171 0.0126612
-0.000377945 -0.00566918 -0.00888171
-0.00340151 0.00075589 -0.0255113
0.00831479 -0.0221098 0.0357158
-0.0128501 0.0100155 -0.00661404
0.00434637 -0.00226767 0.0173855
0.0353379 0.00264562 0.0317474
0.0147399 0.00661404 0.0188973
-0.0117163 0.00434637 0.00396842
-0.0075589 -0.00188973 0.00661404
0.0149288 0.0128501 0.0188973
-0.0145509 0.0166296 0.00226767
-0.0427078 0.0147399 -0.013606
-0.0408181 0.00831479 -0.0126612
-0.0143619 -0.00566918 0.00151178
0.0685971 0.00472431 0.0474321
-0.0170075 -0.0120942 0.0417629
-0.00188973 0.00359048 -0.020976
0.00925966 0.000377945 -0.00661404
0.0459203 -0.0336371 0.0238105
0.0544241 -0.0383614 0.0394953
-0.0427078 0.0315584 -0.0340151
-0.0461093 0.0330702 -0.0457314
-0.00888171 -0.0126612 -0.00736993
0.0062361 -0.0185193 0.0260782
-0.000944863 -0.00491329 -0.0111494
-0.00661404 0.00661404 -0.0408181
-0.00529123 -0.0317474 0.0389284
0.0113384 -0.0268341 0.0489439
0.0230547 -0.0151178 0.0393063
0.000377945 0.000944863 0.00661404
-0.0126612 0.00774788 -0.0470542
-0.0425188 0.0334482 0.00718096
0.0364717 0.0145509 0.0311805
-0.0158737 0.0213539 0.00151178
-0.0665184 0.0177634 -0.0268341
-0.062172 0.00642507 -0.0247554
-0.0381725 -0.020598 0.0325033
Vibration 7
-0.00377945 0.00510226 0.00736993
-0.00321253 0.00812582 -0.0170075
-0.0041574 0.00793685 -0.0200311
-0.00359048 0.00812582 -0.0151178
-0.0020787 0.0075589 -0.00510226
-0.0041574 0.00434637 0.0241885
-0.00226767 0.0122832 -0.0232436
-0.0103935 0.00359048 0.0780457
-0.0181414 0.00453534 0.130958
0.00226767 0.00188973 0.0117163
0.0334482 -0.0103935 0.0291018
0.0408181 -0.013984 0.0266451
0.013606 -0.00510226 0.00529123
-0.0158737 0.00529123 -0.0109604
-0.0200311 0.00736993 -0.00661404
0.020976 -0.00812582 0.00359048
-0.00396842 0.00566918 -0.020976
-0.00075589 0.000566918 -0.00925966
0.00283459 -0.00718096 0.00736993
0.0020787 -0.00850377 0.00888171
-0.00321253 -0.000377945 -0.0122832
-0.0062361 0.00680301 -0.0270231
0.00718096 -0.0188973 0.0326923
-0.0255113 0.0126612 -0.0398732
-0.00283459 0.0102045 -0.0217318
-0.00529123 -0.000377945 -0.0268341
-0.0020787 -0.00793685 -0.0156847
0.000188973 -0.0020787 -0.00510226
-0.00377945 0.00925966 -0.00925966
0.00151178 -0.0198421 -0.013984
0.00831479 -0.0253223 -0.000566918
0.0113384 -0.0194642 0.0105825
0.00680301 -0.0075589 0.00831479
-0.00736993 0.0168186 -0.00359048
-0.00453534 -0.00321253 -0.0359048
0.00245664 0.0164406 -0.0300466
-0.00151178 0.00869274 -0.0289128
0.00869274 0.00642507 -0.0115273
0.0519675 -0.0168186 0.0434637
0.0663294 -0.0232436 0.0402512
-0.0349599 0.0111494 -0.0262672
-0.041385 0.0134171 -0.0170075
-0.00925966 -0.00283459 -0.0113384
0.00604712 -0.0122832 0.0200311
-0.00472431 0 -0.0154958
-0.00982658 0.0124722 -0.041385
-0.00774788 -0.0291018 0.0366607
0.0111494 -0.0239995 0.0457314
0.0224877 -0.0128501 0.0364717
-0.0166296 0.0107714 -0.0419519
-0.0168186 0.0202201 -0.0874943
-0.0735103 0.0211649 -0.020409
-0.000566918 -0.0247554 -0.0230547
0.0115273 -0.034393 0.00132281
0.0170075 -0.0238105 0.0211649
0.00869274 -0.00264562 0.0171965
0.0119053 0.0187083 -0.0264562
Vibration 8
-0.00132281 -0.0160627 -0.0222988
-0.000566918 -0.013984 -0.0330702
-0.0020787 -0.0134171 -0.02759
-0.00566918 -0.0160627 -0.020598
-0.00396842 -0.0177634 -0.00812582
-0.00321253 -0.0171965 -0.0103935
0.00321253 -0.0190862 0.00680301
-0.00472431 -0.0117163 0.00321253
-0.00718096 -0.00170075 0.0145509
-0.00188973 -0.0162516 -0.0153068
-0.00188973 -0.0268341 -0.00642507
-0.00510226 -0.0258892 0.00321253
-0.00888171 -0.0143619 0.00340151
-0.00850377 -0.00434637 -0.00472431
-0.00472431 -0.0062361 -0.013984
-0.0130391 -0.013984 0.0134171
-0.00264562 0.000944863 -0.020409
-0.0243775 0.0128501 -0.0304246
-0.0268341 0.0309915 -0.0145509
-0.00642507 0.034582 0.0115273
0.0151178 0.0236216 0.020409
0.0166296 0.0075589 0.00359048
-0.00642507 0.0515895 0.0340151
-0.0185193 -0.000566918 0.0130391
0.00944863 -0.00321253 0.0102045
-0.00321253 0.00245664 0.00718096
-0.00359048 0.00548021 0.00283459
0.0238105 0.0020787 0.00925966
0.0396842 -0.0020787 0.0156847
-0.0281569 0.0111494 -0.0062361
-0.0230547 0.0130391 -0.00869274
0.00736993 0.00944863 -0.00132281
0.0311805 0.00396842 0.0075589
0.0752111 -0.00264562 0.0249444
-0.0115273 0.00359048 0.00869274
0.00302356 0.0151178 0.00907068
0.00075589 -0.0132281 -0.0434637
-0.0308025 0.000377945 -0.0434637
0.00075589 -0.0360938 -0.0075589
-0.00453534 -0.0336371 0.0100155
-0.0107714 0.00472431 -0.00377945
-0.00396842 0.00075589 -0.0196532
-0.0425188 0.0219208 -0.0383614
-0.0445975 0.0404401 -0.0234326
0.0308025 0.0270231 0.041385
0.034393 -0.00132281 0.0102045
-0.00907068 0.089384 0.0818251
-0.0319364 0.0708647 -0.00510226
0.0221098 0.00850377 0.0468652
-0.0213539 -0.00302356 0.0211649
-0.0153068 0.00264562 0.00283459
-0.0230547 0.00736993 0.0154958
-0.0510226 0.013984 -0.0115273
-0.0427078 0.0173855 -0.0162516
0.0122832 0.0109604 -0.00302356
0.0542351 0.00113384 0.0126612
0.0126612 0.00340151 0.00869274
Vibration 9
-0.0141729 -0.00302356 0.0185193
-0.0134171 -0.0113384 0.0325033
-0.00642507 -0.0156847 0.0171965
-0.00188973 -0.0107714 -0.0141729
-0.000944863 0.000188973 -0.0188973
-0.00774788 0.000944863 0.00321253
0.00793685 0.0096376 -0.0455424
-0.00869274 0.00850377 0.00944863
-0.0107714 0.0166296 0.0188973
-0.0181414 -0.000944863 0.0119053
-0.0128501 0.00642507 0.00642507
-0.00869274 0.00510226 -0.00377945
-0.00982658 -0.00510226 -0.00793685
-0.0187083 -0.0107714 -0.00548021
-0.0230547 -0.00831479 0.00434637
-0.000944863 -0.00774788 -0.0170075
-0.00548021 -0.0147399 0.0289128
-0.0160627 -0.00944863 0.0241885
-0.0222988 0.00831479 0.00661404
-0.0170075 0.0170075 -0.00113384
-0.00283459 0.00510226 0.0219208
0.00188973 -0.0115273 0.0374166
-0.0258892 0.041574 -0.034204
0.020598 -0.0338261 -0.00396842
0.0145509 0.013984 -0.0185193
0.0444086 0.00226767 -0.0111494
0.0272121 -0.00491329 -0.00774788
0.00793685 0.00132281 -0.00529123
0.0156847 0.0128501 -0.00585815
0.0257003 -0.0166296 -0.00793685
0.00113384 -0.020787 -0.00604712
-0.020787 -0.0141729 -0.00434637
-0.0166296 -0.00283459 -0.00340151
0.0236216 0.0219208 0.00453534
0.082959 -0.000377945 -0.00888171
-0.00642507 0.0230547 -0.00170075
-0.0187083 -0.0143619 0.0529123
-0.0326923 -0.0166296 0.02759
-0.0105825 0.0134171 0.0109604
-0.00396842 0.0107714 -0.0075589
-0.0222988 -0.0170075 -0.0107714
-0.0298577 -0.0130391 0.00661404
-0.0111494 -0.00888171 0.0247554
-0.0311805 0.0145509 -0.00264562
0.00340151 0.00925966 0.0249444
0.0115273 -0.0196532 0.0527234
0.000188973 0.0523454 -0.0495108
-0.0360938 0.0466762 -0.041196
-0.0491329 0.0468652 -0.041574
0.0349599 -0.0376055 -0.00529123
0.00604712 -0.0506447 0.0124722
0.0372276 -0.0317474 -0.0102045
0.0425188 -0.0222988 -0.0100155
-0.00132281 -0.0294797 -0.00661404
-0.0410071 -0.0173855 -0.00359048
-0.0326923 0.00264562 -0.00132281
-0.0126612 0.00718096 -0.00850377
Vibration 10
0.000377945 -0.00170075 -0.00321253
0.000377945 0 -0.00434637
-0.00075589 0.00075589 -0.00604712
-0.00264562 -0.000188973 -0.00774788
-0.00226767 -0.00170075 -0.00377945
-0.00113384 -0.00245664 -0.00264562
-0.0020787 -0.00245664 -0.00113384
-0.00132281 -0.00302356 -0.000377945
-0.00170075 -0.00264562 0.00151178
0.00151178 -0.00245664 -0.00132281
0 -0.00283459 -0.00132281
-0.000188973 -0.00283459 0
0.000944863 -0.00226767 0.00132281
0.00340151 -0.00226767 0.00188973
0.00359048 -0.00245664 0.000566918
-0.000188973 -0.00188973 0.00226767
-0.000944863 0.00264562 -0.0041574
-0.00453534 0.0100155 -0.0215429
-0.00302356 0.0075589 -0.0126612
0.00188973 -0.000566918 0.0100155
0.00453534 -0.00510226 0.0224877
0.00359048 -0.00377945 0.0164406
0 0.00264562 0.00113384
-0.00453534 0.0020787 -0.00075589
-0.000944863 -0.000566918 0.00132281
-0.00151178 0.000566918 0.00151178
-0.00113384 0.00113384 0.00075589
0.00302356 0.000566918 0.00170075
0.00434637 -0.000377945 0.00226767
-0.00453534 0.00226767 -0.000377945
-0.00302356 0.00264562 -0.00075589
0.00226767 0.0020787 0.000377945
0.00529123 0.000944863 0.00151178
0.0096376 -0.000377945 0.00359048
-0.00264562 0.00075589 0.0020787
-0.00340151 0.0020787 0.00264562
0.00113384 0.000566918 -0.0041574
-0.000188973 0.00283459 -0.0376055
-0.00113384 -0.00321253 -0.00245664
-0.00151178 -0.00302356 0
0.00491329 -0.00226767 0.00340151
0.00529123 -0.00245664 0.000944863
-0.0130391 0.0253223 -0.0281569
-0.0062361 0.0124722 -0.0251334
0.00736993 -0.0100155 0.0368497
0.00680301 -0.00869274 0.0283459
0.0238105 -0.289884 -0.374544
0.0850377 -0.149099 0.428023
-0.114706 0.458637 -0.0810692
-0.00718096 0.00340151 -0.00170075
-0.00170075 0.00548021 -0.00321253
-0.00774788 0.000566918 0.000377945
-0.00831479 0.00283459 -0.00113384
-0.00566918 0.00359048 -0.00188973
0.00377945 0.00226767 0.000188973
0.00907068 0.000377945 0.0020787
-0.00321253 0 0.0020787
Vibration 11
0.00472431 0.000566918 -0.0236216
0.00510226 -0.00340151 -0.0294797
0.0100155 -0.00548021 0.0041574
0.0124722 -0.00529123 0.0306136
0.0122832 -0.00188973 0.0185193
0.00869274 0.00245664 0.0020787
0.0111494 -0.00283459 0.0236216
0.00604712 0.0062361 0.020787
0.00302356 0.00736993 0.0406291
-0.0062361 0.00699199 -0.0298577
0.00888171 -0.013795 -0.00831479
-0.00170075 -0.00888171 -0.00188973
-0.0281569 0.0164406 -0.0171965
-0.0519675 0.041574 -0.0438416
-0.0394953 0.034393 -0.0495108
-0.0328812 0.0175745 -0.0062361
0.0105825 -0.00396842 0.0107714
0.00736993 0.000188973 0.00321253
0.00510226 0.00718096 -0.00491329
0.00850377 0.00831479 -0.00113384
0.0147399 0.000188973 0.0179524
0.0162516 -0.00529123 0.0230547
0.0041574 0.0188973 -0.0185193
0.0398732 -0.013984 0.062361
0.00510226 -0.00982658 0.00434637
-0.00453534 -0.00736993 0.00132281
-0.00188973 -0.00548021 -0.000188973
-0.00774788 -0.00680301 -0.00510226
-0.0122832 -0.0103935 -0.00548021
0.00718096 -0.00302356 0.00302356
0.0096376 -0.00170075 0.000944863
0.0020787 -0.00302356 -0.00453534
-0.00680301 -0.00548021 -0.00774788
-0.0311805 -0.0151178 -0.0149288
-0.0126612 -0.00680301 0.00151178
0.0219208 -0.0224877 -0.00736993
0.00188973 -0.00566918 -0.0548021
0.00283459 -0.00245664 0.0062361
0.0309915 -0.0351489 0.00359048
0.0128501 -0.0255113 0.0156847
-0.0797464 0.0672742 -0.0606602
-0.0548021 0.0512116 -0.0672742
0.0105825 0.00113384 0.00453534
0.000188973 0.0122832 -0.0154958
0.0181414 -0.00151178 0.027401
0.0222988 -0.0111494 0.0355268
0.0173855 0.0187083 -0.0330702
0.00170075 0.0185193 -0.0149288
-0.0103935 0.0289128 -0.0238105
0.0672742 -0.0377945 0.101667
0.00283459 -0.0568808 0.0931635
0.100911 0.0289128 0.0425188
0.0124722 -0.00188973 0.00699199
0.0175745 0.000377945 0.00359048
0.00340151 -0.00188973 -0.0062361
-0.0124722 -0.00661404 -0.0117163
0.0234326 -0.0062361 -0.0020787
Vibration 12
-0.00736993 0.00529123 -0.0447865
-0.0075589 -0.00132281 -0.0449755
-0.00075589 -0.00472431 0.00264562
0.00359048 -0.00396842 0.0296687
0.00188973 0.00170075 0.00566918
-0.00283459 0.00718096 -0.0175745
0.00359048 0.00226767 0.00850377
-0.00510226 0.0115273 0
-0.00812582 0.013795 0.0187083
-0.00774788 0.00548021 -0.0434637
-0.020976 -0.00132281 -0.0404401
-0.00491329 -0.0119053 -0.0105825
0.0234326 -0.0124722 0.013795
0.0306136 -0.00151178 0.00680301
0.0154958 0.00661404 -0.0215429
0.0493218 -0.0304246 0.0574477
0.00113384 -0.0105825 0.0255113
0.00170075 -0.0107714 0.0264562
-0.00151178 -0.00434637 0.00831479
-0.00321253 -0.00151178 0.000188973
0.00245664 -0.0126612 0.0313695
0.00453534 -0.0166296 0.0428968
-0.0122832 0.0147399 -0.0451645
-0.0427078 0.041196 -0.0151178
0.00226767 0.00245664 0.000377945
0.00151178 0.00132281 -0.000188973
0.00170075 0.000566918 0.000944863
-0.00529123 0.00132281 -0.000566918
-0.00566918 0.00226767 -0.000944863
0.00831479 -0.00113384 0.00340151
0.00548021 -0.00170075 0.00377945
-0.00453534 -0.000566918 0.00113384
-0.00982658 0.000944863 -0.000944863
-0.013984 0.0020787 -0.00340151
0.00245664 0.000944863 -0.00113384
0.00736993 0.000188973 -0.00377945
-0.0126612 -0.00510226 -0.0742662
-0.00434637 -0.00812582 0.0394953
-0.0436527 -0.000377945 -0.0600933
-0.0130391 -0.0192752 -0.00604712
0.0515895 -0.00245664 0.0255113
0.0243775 0.0130391 -0.0247554
0.0126612 -0.0192752 0.0323143
-0.00340151 -0.000377945 -0.00245664
0.00434637 -0.0168186 0.0427078
0.00850377 -0.0238105 0.0612271
0.0147399 0.0332592 -0.0521564
-0.0175745 0.0239995 -0.0714316
-0.0421409 0.00113384 -0.0523454
-0.0462983 0.0377945 -0.00321253
-0.013606 0.0706758 -0.110927
-0.130391 0.0642507 0.0211649
0.0154958 -0.0020787 0.00510226
0.0109604 -0.00283459 0.00585815
-0.00793685 -0.000944863 0.00075589
-0.0168186 0.00188973 -0.00245664
0.00642507 0.00907068 -0.00132281
Vibration 13
0.00566918 0.00359048 -0.0102045
0.00472431 0.0103935 -0.00302356
-0.00113384 0.013795 0.000944863
-0.00491329 0.0119053 -0.00831479
-0.00736993 0.00377945 -0.0173855
-0.000377945 0 -0.0130391
-0.0179524 0.00170075 -0.0268341
-0.00132281 -0.00925966 -0.00188973
-0.00245664 -0.0183303 0.0126612
0.0117163 0.00075589 -0.00736993
0.0149288 -0.00396842 -0.0020787
0.0103935 -0.0020787 0
0.00359048 0.00642507 -0.00340151
0.00604712 0.00888171 -0.00491329
0.0102045 0.0062361 -0.00661404
-0.0100155 0.0128501 -0.00585815
-0.000377945 0.00718096 0.0153068
0.00888171 0.00113384 0.0226767
0.0103935 -0.00699199 0.0132281
0.00075589 -0.00850377 0.00113384
-0.00604712 -0.00907068 0.0113384
-0.00661404 -0.000944863 0.0185193
-0.00245664 -0.0120942 -0.0279679
0.00548021 0.0122832 0.0115273
-0.0149288 -0.00472431 -0.00453534
0.00396842 -0.00302356 0.00434637
-0.0264562 -0.00113384 -0.00869274
0.0264562 -0.0041574 0.00869274
-0.00472431 -0.00453534 -0.00170075
-0.0816362 0.00359048 -0.0291018
-0.048188 0.00321253 -0.0190862
0.0498888 -0.00188973 0.0149288
0.0823921 -0.00529123 0.0270231
-0.034204 -0.00510226 -0.0102045
0.0591484 -0.000944863 0.0257003
-0.0355268 -0.00510226 0.0162516
0.00888171 0.0130391 0.00226767
0.0128501 0.00736993 0.0291018
0.0194642 -0.00944863 0.000188973
0.0113384 -0.00585815 0.00359048
0.00359048 0.013795 -0.00548021
0.0119053 0.00907068 -0.00850377
0.0187083 -0.00736993 0.02759
0.0179524 -0.0100155 0.013795
-0.0113384 -0.0141729 0.0117163
-0.0132281 -0.000188973 0.0234326
0.00793685 -0.00453534 -0.0300466
0.00359048 -0.00812582 -0.0474321
-0.0219208 -0.0264562 -0.0319364
-0.00548021 0.0153068 0.0124722
0.00718096 0.0154958 0.0304246
0.0241885 0.00604712 0.00377945
-0.144186 0.00718096 -0.0504557
-0.0927855 0.00699199 -0.0359048
0.0954312 -0.00283459 0.0300466
0.144564 -0.00869274 0.048188
-0.0563138 -0.00585815 0.0096376
Vibration 14
0.0119053 -0.00264562 -0.0190862
0.0100155 0.0130391 -0.0154958
-0.00283459 0.020409 0.00472431
-0.0119053 0.013606 0.00982658
-0.0166296 -0.0020787 -0.0119053
-0.00113384 -0.00982658 -0.0130391
-0.0323143 -0.00472431 -0.0300466
-0.0020787 -0.0234326 0.00075589
-0.00321253 -0.0336371 0.0160627
0.0260782 -0.0100155 -0.013606
0.0317474 -0.0215429 -0.0020787
0.0213539 -0.0168186 0.00188973
0.00566918 0.00132281 -0.00604712
0.0168186 0.00472431 -0.00604712
0.0260782 -0.00113384 -0.0103935
-0.0321253 0.0198421 -0.0166296
-0.00264562 0.0156847 0.0185193
0.0117163 0.00812582 0.0251334
0.0151178 -0.00680301 0.0143619
0.000944863 -0.0115273 0.00113384
-0.0117163 -0.00982658 0.0113384
-0.0130391 0.00434637 0.0200311
-0.00132281 -0.0234326 -0.0309915
0.00491329 0.0177634 0.0247554
-0.0253223 0.00188973 -0.0096376
-0.0115273 0.00245664 -0.00359048
0.00529123 0.00170075 0.00264562
-0.0122832 0.0020787 -0.00359048
0.00604712 0.00377945 0.00170075
0.0292908 0.00075589 0.0117163
0.0211649 0.000944863 0.00888171
-0.0158737 0.00245664 -0.00472431
-0.0306136 0.00283459 -0.0100155
0.0659514 0.0100155 0.0239995
-0.0219208 0.00170075 -0.00869274
-0.0523454 0.020787 0.00944863
0.0196532 0.0185193 -0.0226767
0.0200311 0.0168186 0.0326923
0.041385 -0.0338261 0.00226767
0.0221098 -0.0243775 0.00869274
0.0143619 0.0141729 -0.00491329
0.0309915 0.00359048 -0.0128501
0.0247554 -0.00113384 0.0315584
0.0272121 -0.0115273 0.0147399
-0.020787 -0.0179524 0.0107714
-0.0241885 0.00680301 0.0245664
0.0062361 -0.0190862 -0.0340151
0.0109604 -0.020976 -0.0519675
-0.0238105 -0.0402512 -0.0357158
-0.0326923 0.0325033 0.0164406
0.0153068 0.0338261 0.082581
0.0538572 -0.0130391 0.00302356
0.0519675 -0.000188973 0.0198421
0.041196 -0.000188973 0.0162516
-0.0304246 0.00302356 -0.0100155
-0.0527234 0.00359048 -0.0181414
-0.0459203 -0.0226767 -0.00132281
Vibration 15
0.00340151 -0.0096376 0.00113384
0.00302356 -0.00472431 -0.00548021
0.000566918 -0.0020787 0.0532903
-0.0020787 -0.00925966 0.122832
-0.00699199 -0.0103935 0.0532903
0.00113384 -0.0103935 0.0266451
-0.0179524 0.000944863 -0.0128501
0.00340151 -0.0096376 0.00453534
0.00718096 -0.0062361 -0.0226767
-0.00302356 -0.00661404 -0.0147399
-0.013984 -0.0075589 -0.0162516
-0.0166296 -0.0075589 -0.0107714
-0.00850377 -0.00774788 -0.00377945
-0.0103935 0.000188973 -0.0105825
-0.00642507 -0.00226767 -0.0151178
0.00699199 -0.0179524 0.0185193
-0.00359048 0.0188973 0.00982658
0.0020787 0.0298577 -0.0268341
0.00377945 0.0211649 -0.0315584
0.000566918 0.00907068 -0.0141729
-0.013606 0.0213539 -0.0357158
-0.0130391 0.0258892 -0.020976
0.013795 -0.0239995 0.0389284
-0.00982658 -0.00132281 0.00736993
-0.0156847 0.00642507 -0.0185193
0.00736993 0.00151178 -0.0126612
-0.0062361 -0.00170075 -0.0147399