[Molden Format]
[FREQ]
-16.1
-9.7
16.6
19.6
29.3
33.3
40.6
41.2
49.0
51.5
62.8
72.7
86.9
101.1
108.4
119.3
122.4
135.5
144.6
148.5
149.9
166.1
176.8
183.2
214.9
225.5
235.8
255.5
267.2
286.4
308.8
312.5
320.6
347.3
351.5
358.9
363.0
377.5
388.8
409.2
417.0
457.2
473.5
493.1
495.6
526.0
535.1
547.5
563.1
578.9
582.9
588.7
596.1
611.6
616.1
633.6
642.5
653.6
665.9
673.1
684.6
715.2
728.7
746.3
792.2
797.3
806.4
819.7
839.7
851.5
862.1
880.0
882.4
889.6
890.5
893.2
903.2
964.7
981.2
992.3
1007.4
1011.0
1014.1
1015.8
1021.3
1021.7
1032.2
1069.5
1075.8
1080.7
1086.2
1125.2
1149.0
1151.1
1167.7
1175.7
1180.6
1184.8
1205.6
1244.8
1252.0
1262.5
1266.4
1272.4
1276.2
1282.2
1284.5
1295.0
1301.6
1324.2
1327.7
1333.4
1344.0
1350.4
1352.2
1357.9
1365.6
1368.7
1381.7
1391.3
1395.8
1426.6
1458.2
1466.7
1494.9
1513.5
1521.6
1531.3
1552.3
1571.0
1574.3
1595.8
1604.6
1645.1
1689.6
1692.6
1696.5
1706.9
1712.4
1740.3
1799.5
1945.8
2272.2
2457.4
2651.2
2652.6
2661.2
2664.5
2674.0
2717.9
2738.3
2739.2
2741.8
2744.3
2745.1
2746.5
2747.6
2754.9
2761.3
2762.4
2764.5
2766.9
2769.8
2779.0
2782.3
       
[FR-COORD]
C -2.29828 -2.79358 0.545375
C 0.349221 -2.79358 0.545375
C 1.66277 -0.525911 0.545375
N 0.405346 1.7393 0.589217
C -2.19737 1.80922 0.443141
C -3.59615 -0.47999 0.409504
N -3.2543 4.19557 0.258326
C -6.26765 -0.49851 0.186516
N -8.44046 -0.621342 -0.00944863
C -3.63602 -5.20412 0.714883
C -3.01619 -7.1734 -0.953367
C -4.22467 -9.48302 -0.774977
C -6.06526 -9.83054 1.11475
C -6.68793 -7.89981 2.80303
C -5.46414 -5.58622 2.58401
O -7.07683 -12.1795 1.0934
C 4.43783 -0.401378 0.470353
C 5.84776 -0.772898 2.66659
C 8.46389 -0.520808 2.58515
C 9.66822 0.115462 0.322954
C 8.24242 0.448999 -1.88066
C 5.63346 0.186705 -1.81092
C 12.4554 0.496431 0.239428
C -9.04517 -12.7077 2.84612
C -5.92429 4.56237 0.126423
C 2.01199 4.17006 1.51839
C 2.86558 5.77614 -0.341285
C 2.44549 5.61986 -3.04133
C 1.00552 3.8798 -4.1213
C 4.56369 7.71311 0.569185
C 5.73948 9.34564 -1.00836
C 5.28424 9.20958 -3.69271
C 3.7135 7.45043 -4.66706
O -0.279868 2.35724 -5.07788
O 2.09004 4.07463 3.78248
O -6.56907 6.87766 -0.167619
H 1.39348 -4.57295 0.590161
H -2.00538 5.69847 0.19861
H -1.58094 -6.87067 -2.4094
H -3.77964 -11.0335 -2.05035
H -8.09464 -8.17609 4.26757
H -5.92656 -4.06329 3.90191
H 4.89515 -1.20394 4.44388
H 9.56334 -0.779701 4.30385
H 9.1767 0.957146 -3.64075
H 4.52419 0.484337 -3.52453
H 13.4327 -0.290451 1.89256
H 12.9106 2.52921 0.176878
H 13.3105 -0.369441 -1.44356
H -9.53877 -14.6656 2.35724
H -10.6658 -11.458 2.54338
H -8.35259 -12.602 4.79178
H 4.89458 7.78699 2.6048
H 7.03507 10.7709 -0.322198
H 6.25707 10.563 -4.89401
H 3.35653 7.31607 -6.68585
H -5.49211 8.35996 -0.302923

[FR-NORM-COORD]
Vibration 1
-0.00566918 -0.000566918 -0.00113384
-0.00548021 0.00170075 -0.00377945
-0.00793685 0.00283459 -0.00075589
-0.0096376 0.00170075 0.00491329
-0.0096376 -0.000188973 0.00566918
-0.00774788 -0.00151178 0.00302356
-0.0113384 -0.00075589 0.00850377
-0.00793685 -0.00340151 0.00548021
-0.00812582 -0.00510226 0.00793685
-0.00359048 -0.00151178 -0.00170075
-0.0041574 0 -0.00377945
-0.00283459 -0.00075589 -0.00434637
-0.000944863 -0.00321253 -0.00283459
-0.000188973 -0.00491329 -0.00075589
-0.00151178 -0.0041574 -0.000188973
0 -0.00359048 -0.00377945
-0.00812582 0.00850377 -0.0062361
-0.00377945 0.0702978 0.00113384
-0.00510226 0.0814472 -0.00869274
-0.0117163 0.0330702 -0.0257003
-0.0162516 -0.0291018 -0.0323143
-0.0147399 -0.0423299 -0.0226767
-0.0141729 0.048188 -0.0385504
0.00170075 -0.00566918 -0.00264562
-0.0111494 -0.00340151 -0.00075589
-0.0117163 0.00132281 0.0102045
0.0100155 -0.00888171 0.0119053
0.0279679 -0.0158737 0.00944863
0.0200311 -0.00793685 0.00736993
0.0143619 -0.0151178 0.0171965
0.0374166 -0.0298577 0.0192752
0.0582036 -0.0387394 0.0160627
0.0536682 -0.0321253 0.0115273
0.0158737 -0.00302356 0.00548021
-0.0336371 0.0096376 0.0115273
-0.0130391 -0.00321253 0.00453534
-0.00377945 0.00264562 -0.00736993
-0.0126612 0.000188973 0.0177634
-0.00566918 0.00188973 -0.00491329
-0.00321253 0.000377945 -0.00585815
0.00151178 -0.00680301 0.000566918
-0.000944863 -0.00548021 0.00170075
0.000566918 0.111494 0.013606
-0.00132281 0.129446 -0.00377945
-0.0211649 -0.0668963 -0.0455424
-0.0190862 -0.0912738 -0.0281569
-0.00774788 0.100155 -0.0175745
-0.027401 0.0495108 -0.0948642
-0.0100155 0.00736993 -0.0153068
0.0020787 -0.00548021 -0.00359048
0.000944863 -0.00604712 -0.000188973
0.00321253 -0.00680301 -0.00302356
-0.00188973 -0.00812582 0.0194642
0.0410071 -0.034771 0.0232436
0.0772898 -0.0510226 0.0179524
0.0684081 -0.0383614 0.00925966
-0.0149288 -0.00113384 0.0149288
Vibration 2
-0.00075589 -0.00321253 -0.000188973
-0.000566918 -0.00869274 0.00226767
0.00340151 -0.0113384 0.00245664
0.0075589 -0.00888171 0.00188973
0.00831479 -0.00321253 -0.00453534
0.00396842 -0.00075589 -0.00434637
0.0145509 -0.00113384 -0.0122832
0.00434637 0.00453534 -0.0096376
0.00453534 0.00944863 -0.0145509
-0.00529123 -0.000566918 0.00075589
-0.00548021 -0.00396842 0.00472431
-0.00869274 -0.0020787 0.00661404
-0.0117163 0.00321253 0.00453534
-0.0120942 0.00680301 0.000188973
-0.00888171 0.00491329 -0.00151178
-0.0143619 0.0041574 0.00699199
0.00340151 -0.0119053 -0.000944863
0.00604712 0.0336371 0.00491329
0.00548021 0.0379835 -0.00264562
0.00151178 -0.000944863 -0.0156847
-0.00151178 -0.0459203 -0.020598
-0.00075589 -0.0519675 -0.0134171
0.000188973 0.00604712 -0.0247554
-0.0160627 0.00869274 0.00642507
0.0154958 0.0062361 -0.00982658
0.0122832 -0.0143619 0.00736993
-0.00170075 -0.00151178 0.0120942
-0.00548021 0.00548021 0.0120942
0.0410071 -0.0279679 0.0041574
-0.0149288 0.00812582 0.0160627
-0.0472432 0.0368497 0.0219208
-0.068975 0.0578256 0.0243775
-0.0495108 0.0428968 0.0200311
0.0706758 -0.0493218 -0.00188973
0.0291018 -0.0304246 0.00604712
0.0226767 0.00718096 -0.0190862
-0.00396842 -0.0105825 0.00377945
0.0192752 -0.00472431 -0.020598
-0.00302356 -0.00812582 0.0062361
-0.00869274 -0.00472431 0.0096376
-0.0149288 0.0109604 -0.00151178
-0.00888171 0.0075589 -0.00472431
0.00831479 0.0672742 0.0143619
0.00774788 0.0731324 0.00132281
-0.0041574 -0.0767229 -0.0308025
-0.00340151 -0.0884392 -0.0179524
0.00472431 0.0308025 -0.0154958
-0.00604712 0.00661404 -0.0519675
0.00075589 -0.0134171 -0.0143619
-0.0171965 0.00812582 0.00925966
-0.0147399 0.00944863 0.00302356
-0.0173855 0.0113384 0.00661404
0.00132281 -0.00774788 0.0141729
-0.0574477 0.0449755 0.0245664
-0.101289 0.0859825 0.0300466
-0.0642507 0.0574477 0.0217318
0.027779 0.00264562 -0.02759
Vibration 3
0.0041574 0.00377945 0.013606
0.00434637 0.00340151 0.0188973
0.00453534 0.00321253 0.0190862
0.00472431 0.00340151 0.0170075
0.00491329 0.0041574 0.0190862
0.00472431 0.0041574 0.0158737
0.00453534 0.00434637 0.0232436
0.00510226 0.00510226 0.0105825
0.00548021 0.00604712 0.00472431
0.00321253 0.00359048 0.0020787
0.00699199 0.0102045 -0.00453534
0.00377945 0.0109604 -0.0192752
-0.00359048 0.00472431 -0.02759
-0.00680301 -0.00245664 -0.020409
-0.00321253 -0.00302356 -0.00566918
-0.00718096 0.00642507 -0.0427078
0.00472431 0.00377945 0.0198421
0.00359048 0.0255113 0.0241885
0.00340151 0.0279679 0.0236216
0.00396842 0.00925966 0.0187083
0.00491329 -0.0126612 0.0147399
0.00529123 -0.0154958 0.0153068
0.00340151 0.0128501 0.0173855
-0.0158737 0.00151178 -0.0538572
0.00340151 0.00604712 0.0527234
0.00793685 0.00736993 -0.00491329
-0.000188973 -0.00453534 -0.0192752
-0.0107714 -0.0241885 -0.0166296
-0.00604712 -0.0383614 -0.000188973
0.00132281 0.00359048 -0.0398732
-0.0103935 -0.00340151 -0.0557469
-0.0249444 -0.0196532 -0.0523454
-0.0253223 -0.0294797 -0.0340151
-0.00321253 -0.0496998 0.013984
0.0187083 0.0234326 -0.00434637
0.00170075 0.0062361 0.0593374
0.00396842 0.00321253 0.020976
0.00472431 0.00359048 0.0105825
0.0124722 0.0153068 0.00188973
0.00642507 0.0162516 -0.0247554
-0.0119053 -0.00774788 -0.0264562
-0.00585815 -0.00850377 -0.000188973
0.00283459 0.041196 0.02759
0.00245664 0.0449755 0.0266451
0.00548021 -0.0272121 0.0107714
0.00585815 -0.0323143 0.0119053
0.00396842 0.0245664 0.0226767
0.000188973 0.0132281 0.00510226
0.00566918 0.00377945 0.0232436
-0.0187083 0.00548021 -0.0668963
-0.0117163 0.00718096 -0.0536682
-0.0236216 -0.0109604 -0.0504557
0.0119053 0.0162516 -0.0421409
-0.00925966 0.00302356 -0.0710537
-0.0355268 -0.0234326 -0.0653845
-0.0362827 -0.041574 -0.0311805
0.00113384 0.00548021 0.0462983
Vibration 4
-0.00188973 0.00510226 0.020409
-0.00188973 0.00359048 0.00529123
-0.00075589 0.00283459 0.0102045
0.00075589 0.00359048 0.0130391
-0.000188973 0.00510226 0.0211649
-0.00226767 0.00585815 0.0425188
0.00283459 0.00472431 0.00377945
-0.00736993 0.00793685 0.101289
-0.0130391 0.00869274 0.164973
-0.000377945 0.00321253 0.00925966
-0.0234326 0.0272121 -0.02759
-0.0236216 0.0258892 -0.0464873
0.000566918 0 -0.027779
0.0258892 -0.0249444 0.0102045
0.0253223 -0.0228657 0.0287238
-0.00377945 0.00188973 -0.0508336
-0.00075589 0.000944863 0.00831479
0 0.00377945 0.00831479
0.000188973 0.00075589 0.00642507
-0.000377945 -0.00472431 0.00453534
-0.00113384 -0.00699199 0.00472431
-0.00151178 -0.0041574 0.00661404
0.000188973 -0.00831479 0.00226767
0.0158737 -0.020787 -0.0357158
0.00736993 0.00170075 -0.106203
0.00491329 0.00302356 0.00491329
0.00132281 -0.000188973 0.000566918
-0.00566918 -0.00396842 0.00170075
-0.00529123 -0.00774788 0.00736993
0.00377945 0.00113384 -0.00661404
-0.00245664 0.000566918 -0.0117163
-0.0115273 -0.00151178 -0.0100155
-0.0128501 -0.00377945 -0.00377945
-0.00529123 -0.0103935 0.0119053
0.0103935 0.00736993 0.00510226
0.0171965 0.00075589 -0.13436
-0.00302356 0.00264562 -0.00869274
0.00302356 0.0062361 0.0444086
-0.041574 0.0472432 -0.041196
-0.0419519 0.0444086 -0.0752111
0.0457314 -0.0457314 0.0255113
0.0447865 -0.0423299 0.0578256
0.000377945 0.00812582 0.0096376
0.000944863 0.00283459 0.0062361
-0.00170075 -0.0111494 0.00340151
-0.0020787 -0.00604712 0.00680301
0.000188973 -0.00812582 0.00226767
0.00264562 -0.00907068 0.000188973
-0.0020787 -0.0109604 0.00245664
0.00472431 -0.0115273 -0.0610381
0.0154958 -0.0115273 0.00396842
0.0394953 -0.0536682 -0.0423299
0.0105825 0.00264562 -0.00774788
-0.00075589 0.00170075 -0.0170075
-0.0170075 -0.00113384 -0.0141729
-0.0192752 -0.00548021 -0.00245664
0.0211649 0.0020787 -0.089384
Vibration 5
0.0156847 -0.0164406 0.0102045
0.0156847 -0.0147399 0.00812582
0.013606 -0.0134171 0.00170075
0.0111494 -0.0141729 0
0.0111494 -0.0164406 0.000566918
0.013606 -0.0177634 0.00434637
0.00888171 -0.0177634 -0.00283459
0.013795 -0.020409 0.00151178
0.0141729 -0.0224877 -0.00151178
0.0115273 -0.013984 0.0154958
0.00359048 -0.0185193 0.0181414
-0.0154958 -0.00907068 0.0126612
-0.0270231 0.00529123 0.00396842
-0.0132281 0.00718096 0.00699199
0.00642507 -0.00283459 0.0128501
-0.0527234 0.0164406 -0.00661404
0.0132281 -0.00434637 -0.00321253
0.0196532 -0.013984 -0.00907068
0.0171965 0.0119053 -0.00982658
0.00831479 0.0466762 -0.00472431
0.00302356 0.0495108 -0.000944863
0.00566918 0.0238105 0
0.00359048 0.0820141 -0.00321253
-0.0754001 0.0379835 -0.0253223
0.00869274 -0.0213539 -0.0126612
0.00888171 -0.0124722 0.000188973
0.00113384 -0.00680301 0.00151178
-0.00510226 -0.000944863 0.0020787
-0.013606 0.0062361 0.0020787
0.00170075 -0.00736993 0.0020787
0.00075589 -0.0062361 0.00264562
-0.00075589 -0.00396842 0.00283459
-0.00359048 -0.00132281 0.00264562
-0.0200311 0.0117163 0.00188973
0.0151178 -0.0171965 -0.000188973
0.00699199 -0.0228657 -0.0198421
0.0168186 -0.013795 0.0107714
0.00718096 -0.0162516 -0.00170075
0.0111494 -0.0291018 0.0234326
-0.0232436 -0.0117163 0.0132281
-0.0183303 0.0164406 0.00377945
0.0162516 -0.00113384 0.0143619
0.0262672 -0.0400622 -0.0119053
0.0217318 0.0062361 -0.013606
-0.00396842 0.0736993 0.00226767
0.00113384 0.027779 0.00359048
0.013984 0.0865495 -0.00736993
-0.0224877 0.0882502 0.00680301
0.0141729 0.101478 -0.00793685
-0.101478 0.0478101 -0.0389284
-0.0540462 0.0638727 -0.0321253
-0.0890061 0.0177634 -0.0194642
0.00321253 -0.00925966 0.00188973
0.00132281 -0.00680301 0.00302356
0.000188973 -0.00434637 0.00321253
-0.00491329 0.000377945 0.00283459
0.00566918 -0.0219208 -0.0202201
Vibration 6
-0.00585815 -0.00321253 -0.0228657
-0.00585815 -0.00774788 -0.0330702
-0.00264562 -0.0096376 -0.0249444
0.000377945 -0.00793685 -0.0173855
0.000188973 -0.00340151 -0.0109604
-0.00340151 -0.00113384 -0.00982658
0.00396842 -0.00113384 -0.00283459
-0.00491329 0.00321253 0.00925966
-0.00680301 0.00699199 0.0272121
-0.00944863 -0.00113384 -0.0185193
-0.0359048 0.00472431 -0.034582
-0.0364717 0.00566918 -0.0255113
-0.00869274 0.00075589 0.000566918
0.0164406 -0.00396842 0.0153068
0.0153068 -0.00434637 0.00510226
-0.0096376 0.000944863 0.00907068
-0.00226767 -0.00869274 -0.0134171
-0.0153068 -0.00548021 -0.0041574
-0.0166296 0.0103935 0.0149288
-0.00453534 0.0232436 0.0247554
0.0096376 0.0143619 0.0145509
0.0103935 -0.00188973 -0.00472431
-0.0075589 0.0504557 0.0508336
0.0232436 -0.00642507 0.0440306
0.00377945 0.00510226 0.020409
0.00491329 -0.0126612 -0.0115273
0.00812582 -0.0103935 -0.00812582
0.00604712 -0.00283459 -0.00812582
0.0154958 -0.0075589 -0.0130391
0.0120942 -0.0156847 -0.0041574
0.00774788 -0.00888171 0
-0.00170075 0.00491329 0.00075589
-0.00264562 0.00793685 -0.00302356
0.0211649 -0.0096376 -0.0173855
0.00491329 -0.0187083 -0.0119053
0.00661404 0.0075589 0.0332592
-0.00888171 -0.00982658 -0.0440306
0.00680301 -0.00359048 -0.00925966
-0.0555579 0.00812582 -0.0532903
-0.0570697 0.0096376 -0.0376055
0.0370386 -0.00718096 0.034393
0.034771 -0.0075589 0.0154958
-0.0255113 -0.0134171 -0.0115273
-0.0270231 0.0147399 0.0222988
0.0187083 0.0217318 0.0215429
0.020976 -0.00736993 -0.0124722
-0.00680301 -0.0211649 0.0164406
-0.0268341 0.0582036 0.151745
0.00774788 0.141163 0.0122832
0.0183303 -0.00642507 0.0491329
0.0153068 -0.00907068 0.075589
0.0582036 -0.00888171 0.0317474
0.0183303 -0.0257003 -0.00491329
0.0109604 -0.0128501 0.00264562
-0.00831479 0.0130391 0.00453534
-0.0096376 0.0181414 -0.00245664
0.00888171 0.00566918 0.0302356
Vibration 7
-0.013606 0.00359048 -0.00170075
-0.0130391 -0.00377945 0.00434637
-0.00642507 -0.00812582 0.00831479
-0.000377945 -0.00453534 0.0115273
0.000377945 0.00377945 0.00736993
-0.0062361 0.0075589 -0.00132281
0.0096376 0.00812582 0.0102045
-0.00548021 0.0177634 -0.0115273
-0.00510226 0.0281569 -0.0211649
-0.0153068 0.00434637 -0.00793685
0.00642507 -0.00151178 0.00642507
0.0187083 -0.00736993 0.0103935
0.00736993 -0.00774788 -0.000566918
-0.020976 0.000377945 -0.020409
-0.0319364 0.00604712 -0.0238105
0.027779 -0.0164406 0.0100155
-0.00642507 -0.0102045 0.00566918
-0.00283459 -0.00944863 0.00321253
-0.00396842 0.00529123 0.00170075
-0.0096376 0.0190862 0.00283459
-0.0128501 0.0122832 0.00359048
-0.0111494 -0.00245664 0.00491329
-0.0128501 0.041385 0.000377945
0.027401 -0.0239995 0.00736993
0.0124722 0.0194642 -0.020787
0.0147399 -0.0130391 0.00661404
0.0153068 -0.0168186 0.00340151
-0.0171965 0 0.0075589
-0.020976 0.000377945 0.0120942
0.047999 -0.0408181 -0.00736993
0.0355268 -0.0360938 -0.0119053
-0.0147399 -0.0041574 -0.00491329
-0.0400622 0.0132281 0.00434637
-0.0317474 0.00585815 0.0173855
0.0298577 -0.0173855 0.00585815
0.0268341 0.0230547 -0.0241885
-0.0179524 -0.00661404 0.00472431
0.0154958 0.00396842 0.0262672
0.0153068 -0.00170075 0.0151178
0.0376055 -0.0122832 0.0228657
-0.0336371 0.00226767 -0.0323143
-0.0525344 0.0113384 -0.0370386
0.00113384 -0.0181414 0.00321253
-0.00151178 0.0075589 0.000377945
-0.0166296 0.0202201 0.00377945
-0.0141729 -0.00529123 0.00642507
-0.0105825 0.103557 0.0285349
-0.0298577 0.0430858 -0.0644397
-0.00113384 -0.0062361 0.0306136
0.0538572 -0.0349599 0.0245664
0.0134171 -0.0468652 -0.0119053
0.0177634 0.00359048 0.00925966
0.0835259 -0.0629279 -0.0122832
0.0612271 -0.055369 -0.020598
-0.0315584 0.00529123 -0.00774788
-0.0772898 0.0366607 0.00944863
0.0357158 0.0181414 -0.00925966
Vibration 8
-0.00321253 0.00245664 0.00736993
-0.00283459 0.00226767 0.00925966
-0.00226767 0.00151178 0.00661404
-0.00132281 0.0020787 0.0062361
-0.00132281 0.00264562 0.00548021
-0.0020787 0.00302356 0.00510226
0 0.00302356 0.00321253
-0.00170075 0.00491329 0.00113384
-0.00151178 0.00736993 -0.00245664
-0.00151178 0.00170075 0.00529123
0.0171965 -0.00340151 0.0177634
0.0217318 -0.00585815 0.0160627
0.00585815 -0.00321253 0.000944863
-0.013984 0.00188973 -0.0120942
-0.0171965 0.00377945 -0.00944863
0.0126612 -0.00604712 0.00113384
-0.00226767 0.000188973 0.000566918
0.00264562 0.00869274 -0.00075589
0.0020787 0.00604712 -0.00850377
-0.00226767 -0.00453534 -0.0147399
-0.00680301 -0.0124722 -0.0120942
-0.00736993 -0.0105825 -0.00434637
-0.00321253 0.00359048 -0.00793685
-0.00434637 -0.00359048 -0.0170075
0.00075589 0.00434637 -0.00850377
0.000188973 0.00113384 0.00434637
0.000944863 -0.000566918 0.00302356
-0.000188973 -0.0020787 0.00340151
-0.00151178 -0.0020787 0.00510226
0.00283459 -0.00132281 0.00113384
0.00359048 -0.00340151 -0.000377945
0.00226767 -0.00472431 -0.000188973
0.000566918 -0.0041574 0.00170075
-0.00283459 -0.00226767 0.00699199
0.00132281 0.00283459 0.00434637
0.00340151 0.00472431 -0.0130391
-0.00302356 0.0020787 0.0117163
0.00075589 0.00264562 0.0075589
0.0285349 -0.00529123 0.0283459
0.0370386 -0.0096376 0.0258892
-0.0268341 0.0041574 -0.0239995
-0.0319364 0.00699199 -0.0183303
0.0062361 0.0175745 0.00321253
0.00718096 0.013606 -0.0105825
-0.0122832 -0.0198421 -0.0170075
-0.0109604 -0.0171965 -0.00321253
0.0291018 -0.324088 -0.182737
-0.00736993 0.0173855 0.385882
-0.0334482 0.340151 -0.195398
0.00566918 -0.00699199 -0.013984
-0.0041574 -0.00888171 -0.0389284
-0.0245664 0.00604712 -0.0103935
0.00359048 -0.000188973 0.000944863
0.00491329 -0.00396842 -0.00188973
0.00283459 -0.0062361 -0.00151178
-0.000377945 -0.00510226 0.00188973
0.00491329 0.00377945 -0.00944863
Vibration 9
-0.00736993 -0.00113384 0.00302356
-0.00661404 0.000377945 -0.0111494
-0.0062361 -0.000188973 -0.020409
-0.00510226 0.000566918 -0.0247554
-0.00585815 -0.00075589 -0.0100155
-0.00736993 -0.000377945 0.0096376
-0.00529123 -0.000566918 -0.0134171
-0.0102045 0.00491329 0.0438416
-0.013984 0.0120942 0.0793685
-0.00113384 -0.00396842 0.00888171
0.0351489 -0.0181414 0.0377945
0.0432747 -0.0219208 0.0387394
0.0100155 -0.0119053 0.00831479
-0.0255113 0.000566918 -0.0190862
-0.0291018 0.00264562 -0.0170075
0.0181414 -0.0153068 0.00982658
-0.00604712 -0.00188973 -0.0158737
-0.0143619 -0.00982658 -0.0117163
-0.0143619 -0.00793685 0
-0.00585815 0.00151178 0.00718096
0.00302356 0.00680301 0.00226767
0.00283459 0.00491329 -0.00925966
-0.00585815 0.00453534 0.0188973
-0.0315584 0.00188973 -0.0406291
-0.0062361 0.00340151 0.020787
-0.00377945 0.000188973 -0.0181414
0.00831479 -0.000377945 -0.0124722
0.0126612 0.0100155 -0.013606
0.0272121 0.00434637 -0.0238105
0.013984 -0.00944863 -0.00302356
0.0134171 -0.000944863 0.00548021
0.00566918 0.0192752 0.00566918
0.00529123 0.0247554 -0.00321253
0.0377945 0.00170075 -0.0338261
-0.0153068 -0.00264562 -0.0179524
-0.00661404 0.00377945 0.0251334
-0.00548021 0.00113384 -0.0113384
-0.00377945 -0.00264562 -0.0328812
0.0572587 -0.0257003 0.0578256
0.0729434 -0.0321253 0.0614161
-0.0498888 0.00812582 -0.0408181
-0.0548021 0.00982658 -0.0340151
-0.0211649 -0.0170075 -0.0170075
-0.0211649 -0.013606 0.00359048
0.0100155 0.0126612 0.00774788
0.00982658 0.00869274 -0.0132281
-0.0158737 0.0453534 0.0442196
-0.00812582 0.00359048 -0.0264562
0.00642507 -0.034771 0.0453534
-0.020598 -0.00151178 -0.0381725
-0.0215429 0.00151178 -0.0958091
-0.0852266 0.0170075 -0.0222988
0.0181414 -0.0236216 -0.00321253
0.0179524 -0.00831479 0.0122832
0.000188973 0.0300466 0.0134171
-0.000377945 0.0396842 -0.00321253
-0.00604712 0.0020787 0.0096376
Vibration 10
0.00907068 -0.000377945 0.00188973
0.00850377 0.00812582 0.00264562
0.000377945 0.0130391 0
-0.00642507 0.00925966 -0.00340151
-0.00661404 -0.000188973 -0.00245664
0.00132281 -0.00510226 -0.00264562
-0.0170075 -0.00453534 0
0.00170075 -0.0181414 -0.00793685
0.00302356 -0.0328812 -0.013795
0.0130391 -0.00245664 0.00661404
0 0.00170075 -0.00264562
-0.00699199 0.00491329 -0.00472431
0.00075589 0.00453534 0.00264562
0.0194642 -0.00151178 0.0164406
0.0251334 -0.00453534 0.0179524
-0.0126612 0.0102045 -0.00491329
0.000377945 0.0160627 0.00340151
-0.00377945 0.0272121 0.00812582
-0.00264562 0.0132281 0.00888171
0.00302356 -0.0122832 0.00472431
0.00642507 -0.0160627 0.0020787
0.00472431 -0.00113384 0.00151178
0.00642507 -0.0364717 0.00434637
-0.0168186 0.0170075 -0.0075589
-0.0190862 -0.0219208 -0.00434637
-0.00604712 0.0119053 -0.00245664
0.020598 -0.00453534 -0.00377945
-0.0107714 0.020598 -0.000188973
0.0041574 0.00925966 -0.0020787
0.0701088 -0.0451645 -0.00982658
0.0561249 -0.034204 -0.00907068
-0.0173855 0.0257003 0.000377945
-0.0498888 0.0521564 0.00491329
0.00434637 0.00907068 -0.00188973
-0.0221098 0.0192752 -0.00170075
-0.0366607 -0.0264562 0.000566918
0.0141729 0.0115273 0.00529123
-0.0245664 0.000944863 0.00661404
-0.0062361 0.00245664 -0.00831479
-0.0188973 0.00831479 -0.0130391
0.0289128 -0.00359048 0.0251334
0.0383614 -0.00793685 0.0266451
-0.00793685 0.0451645 0.0102045
-0.00548021 0.0202201 0.0119053
0.0103935 -0.0317474 -0.000377945
0.00736993 -0.0041574 -0.00075589
0.00188973 -0.0676522 -0.00793685
0.0245664 -0.0396842 0.0308025
-0.00377945 -0.0213539 -0.00850377
-0.0364717 0.0253223 -0.0213539
-0.00510226 0.0349599 0.00302356
-0.013984 -0.00377945 -0.00736993
0.118864 -0.0852266 -0.0162516
0.0961871 -0.0676522 -0.0151178
-0.0457314 0.0487549 0.00359048
-0.104502 0.096376 0.0117163
-0.0487549 -0.0171965 0.00774788
Vibration 11
-0.00831479 0.00604712 0.0272121
-0.00831479 0.00453534 0.0389284
-0.00661404 0.00359048 0.0224877
-0.00604712 0.00472431 0.00831479
-0.00566918 0.00472431 0.00321253
-0.00699199 0.00529123 0.00982658
-0.00472431 0.00396842 -0.0120942
-0.00548021 0.00321253 -0.0075589
-0.00377945 0.000188973 -0.0255113
-0.00925966 0.00585815 0.0196532
-0.0124722 0.0179524 0.0041574
-0.0107714 0.0162516 -0.00888171
-0.0041574 0.00188973 -0.00472431
-0.00170075 -0.0096376 0.00907068
-0.00510226 -0.00642507 0.020598
0 0.000188973 -0.0181414
-0.00680301 -0.000566918 0.00850377
0.0111494 -0.0496998 -0.0117163
0.0105825 -0.0445975 -0.0266451
-0.00774788 0.0109604 -0.020598
-0.0243775 0.0510226 -0.00377945
-0.0224877 0.041574 0.0103935
-0.0102045 0.0260782 -0.034771
0.0190862 -0.0221098 -0.00359048
-0.00566918 0.00472431 0.00925966
-0.0107714 0.0115273 0.00510226
0.00888171 -0.00340151 0.00113384
0.0166296 -0.0100155 0.000377945
0.0453534 -0.0323143 -0.0020787
0.0173855 -0.0102045 0
0.0164406 -0.00982658 -0.000188973
0.00245664 0.00132281 0.00170075
0.00113384 0.00226767 0.0020787
0.0729434 -0.0542351 -0.00434637
-0.034393 0.0287238 0.0062361
-0.00736993 0.00283459 -0.00188973
-0.0100155 0.00396842 0.0538572
-0.0041574 0.00245664 -0.0306136
-0.0162516 0.0289128 0.00264562
-0.0141729 0.0255113 -0.0211649
0.00226767 -0.020787 0.0107714
-0.00472431 -0.013984 0.0292908
0.0264562 -0.0935414 -0.0143619
0.0241885 -0.0835259 -0.041385
-0.0389284 0.089384 -0.000566918
-0.0334482 0.0648176 0.0215429
0.00377945 0.0270231 -0.0428968
-0.0213539 0.0287238 -0.0323143
-0.0158737 0.0351489 -0.0425188
0.0243775 -0.0211649 -0.0130391
0.0100155 -0.0281569 0.0200311
0.0362827 -0.0325033 -0.00925966
0.0239995 -0.0154958 -0.000944863
0.0241885 -0.0162516 -0.00151178
-0.0075589 0.00944863 0.00264562
-0.0100155 0.0109604 0.00340151
-0.00793685 0.00132281 -0.0217318
Vibration 12
-0.00793685 -0.00264562 0.0430858
-0.00793685 -0.00793685 0.0583925
-0.00359048 -0.0105825 0.0236216
0.00170075 -0.00661404 -0.0153068
0.00226767 -0.0041574 -0.0156847
-0.00264562 -0.0020787 0.0109604
0.00850377 -0.00359048 -0.0457314
-0.00132281 -0.00132281 -0.00321253
0 -0.00132281 -0.0185193
-0.0100155 -0.00245664 0.0376055
-0.0134171 0.0141729 0.0158737
-0.0120942 0.0124722 -0.00510226
-0.00566918 -0.00812582 -0.00245664
-0.00113384 -0.0257003 0.0192752
-0.00472431 -0.0211649 0.0379835
-0.00321253 -0.00907068 -0.027401
-0.00396842 -0.0130391 0.0194642
0.00132281 0.00585815 0.0190862
0.000566918 0.0122832 0.0113384
-0.00642507 -0.00170075 0.00359048
-0.0119053 -0.0228657 0.00377945
-0.0111494 -0.0264562 0.0120942
-0.00812582 0.00888171 -0.00472431
0.0143619 -0.0393063 -0.0171965
0.00642507 0.00831479 0.0338261
0.0102045 -0.00472431 -0.0215429
0.00188973 0.00510226 -0.0166296
0.0041574 0.020409 -0.0173855
-0.00453534 0.0355268 -0.0298577
-0.00113384 0.00340151 -0.00491329
0.00434637 0.00888171 0.00491329
0.0154958 0.0166296 0.00264562
0.0160627 0.0217318 -0.0075589
-0.0164406 0.0546131 -0.0440306
0.02759 -0.0190862 -0.0228657
0.0113384 0.00642507 0.00661404
-0.0119053 -0.0096376 0.0912738
0.0147399 -0.0105825 -0.107336
-0.0168186 0.0296687 0.0156847
-0.0158737 0.0260782 -0.0230547
0.0041574 -0.0423299 0.0211649
-0.0041574 -0.0328812 0.0514005
0.00604712 0.0175745 0.0243775
0.00529123 0.0291018 0.0107714
-0.0168186 -0.034582 -0.00226767
-0.0168186 -0.0383614 0.013795
0.000188973 0.0075589 -0.0102045
-0.0166296 0.0109604 0.000188973
-0.00982658 0.0175745 -0.0100155
0.0166296 -0.034393 -0.0396842
0.0075589 -0.0406291 0.0145509
0.0313695 -0.0634948 -0.0219208
-0.00774788 -0.00283459 -0.00359048
0.00113384 0.00736993 0.0147399
0.0232436 0.0173855 0.0100155
0.0245664 0.0270231 -0.00944863
0.0166296 -0.00396842 -0.0642507
Vibration 13
0.0103935 -0.00585815 0.00774788
0.0105825 -0.00188973 0.0122832
0.00907068 -0.000377945 0.00907068
0.00793685 -0.000188973 0.0020787
0.00812582 -0.00472431 0.0062361
0.0100155 -0.00585815 0.00925966
-0.00226767 -0.00907068 0.0062361
0.00888171 -0.00642507 0.0173855
0.00793685 -0.00907068 0.0285349
0.000377945 -0.000944863 -0.00302356
0.0173855 -0.0124722 0.0170075
-0.0041574 -0.00264562 0.00151178
-0.041385 0.0162516 -0.0309915
-0.0665184 0.0306136 -0.0566918
-0.0438416 0.0196532 -0.041196
-0.0563138 0.0232436 -0.0410071
0.00925966 0.00226767 0.00812582
0.0128501 0.00566918 0.00642507
0.0130391 0.00510226 0.00226767
0.0102045 0.00113384 -0.000188973
0.00661404 0.000566918 0.00188973
0.00661404 0.00132281 0.0062361
0.0107714 -0.00340151 -0.00604712
0.0583925 -0.0258892 0.0731324
-0.00585815 -0.0360938 0.00188973
0.00566918 0.00510226 -0.0041574
0.00585815 0.0041574 -0.00472431
0.00566918 0.00680301 -0.00472431
0.00472431 0.00850377 -0.00604712
0.00510226 0.00491329 -0.00396842
0.00359048 0.00736993 -0.00264562
0.00302356 0.00982658 -0.00264562
0.0041574 0.00925966 -0.00359048
0.00434637 0.0103935 -0.00812582
0.00566918 0.00907068 -0.00377945
-0.0359048 -0.0459203 -0.00113384
0.0126612 -0.000377945 0.0166296
-0.0119053 -0.00245664 0.00831479
0.0491329 -0.0298577 0.0444086
0.0102045 -0.0107714 0.0164406
-0.105447 0.0515895 -0.0901399
-0.0614161 0.0279679 -0.0565028
0.0156847 0.00812582 0.00850377
0.0153068 0.00736993 0.00113384
0.00396842 -0.000944863 0
0.0041574 0.00132281 0.00774788
0.0130391 -0.0075589 -0.00944863
0.013984 -0.00396842 -0.00377945
0.00548021 -0.0020787 -0.00925966
0.0978878 -0.0474321 0.119242
0.00132281 -0.0823921 0.145698
0.157414 0.0164406 0.0355268
0.00585815 0.00340151 -0.00396842
0.00283459 0.0075589 -0.00151178
0.00132281 0.0117163 -0.00151178
0.00359048 0.0105825 -0.00359048
-0.0559359 -0.0315584 -0.00132281
Vibration 14
-0.0151178 0.0156847 0.0041574
-0.0154958 0.00944863 0.000377945
-0.0115273 0.00642507 -0.0020787
-0.0020787 0.0128501 0.00642507
-0.00151178 0.0164406 0.020976
-0.00774788 0.0187083 0.00982658
-0.0164406 0.0126612 0.0453534
-0.00736993 0.013606 -0.00377945
-0.00472431 -0.00472431 -0.0219208
-0.0177634 0.0171965 0.000566918
-0.0179524 0.0236216 -0.00718096
-0.00377945 0.0168186 -0.00245664
0.0096376 0.00510226 0.00831479
0.00283459 0.00188973 0.00944863
-0.0100155 0.00869274 0.00604712
0.0351489 -0.00604712 0.0213539
-0.0117163 -0.00680301 -0.0075589
-0.0151178 -0.0164406 -0.00680301
-0.0154958 -0.0154958 -0.00226767
-0.013795 -0.00340151 0.0020787
-0.00944863 -0.00566918 -0.000944863
-0.00925966 -0.00812582 -0.00604712
-0.0162516 0.0166296 0.0119053
-0.00869274 0.00453534 -0.0249444
-0.0221098 -0.0508336 -0.0168186
0.0434637 -0.00321253 -0.00434637
0.0156847 0.0124722 -0.00321253
0.0173855 0.0096376 -0.00321253
0.0190862 0.00472431 0.00283459
0.00566918 0.0234326 -0.00585815
0.00812582 0.0194642 -0.00831479
0.0236216 0.00359048 -0.0102045
0.0260782 -0.000188973 -0.00736993
0.027779 -0.00661404 0.00925966
0.114895 -0.0455424 -0.00907068
-0.0931635 -0.0723765 -0.0122832
-0.0190862 0.00718096 -0.00283459
-0.0332592 0.0239995 0.0852266
-0.0285349 0.0336371 -0.0153068
-0.00226767 0.0202201 -0.00604712
0.0102045 -0.00699199 0.0145509
-0.0130391 0.00604712 0.00793685
-0.0183303 -0.020409 -0.00944863
-0.0177634 -0.020409 -0.00151178
-0.00642507 -0.00321253 0.00132281
-0.00680301 -0.00925966 -0.00774788
-0.0170075 0.0309915 0.0190862
-0.0321253 0.0200311 0.00585815
-0.00302356 0.0166296 0.0187083
0.00472431 0.000944863 -0.0241885
-0.00188973 0.00170075 -0.0735103
-0.0572587 0.0177634 -0.00831479
-0.00321253 0.0349599 -0.00491329
-0.00075589 0.027779 -0.00907068
0.0317474 -0.00491329 -0.0132281
0.034771 -0.0111494 -0.00831479
-0.141163 -0.034204 0.0266451
Vibration 15
-0.00170075 -0.00888171 0.00548021
-0.0020787 -0.00774788 0.0109604
-0.00113384 -0.00774788 0.0117163
0.00188973 -0.00642507 0.0171965
-0.000377945 -0.0062361 0.0455424
0.000566918 -0.00661404 0.0132281
-0.00302356 -0.00170075 0.124155
0.00226767 -0.00869274 -0.00604712
0.00453534 -0.0143619 -0.0281569
-0.00321253 -0.00907068 0.00188973
-0.00585815 -0.00982658 0.00170075
-0.00661404 -0.0096376 0.0020787
-0.00548021 -0.0103935 0.00321253
-0.00283459 -0.0102045 0.00396842
-0.00226767 -0.0103935 0.00302356
-0.00642507 -0.0102045 0.00321253
-0.00132281 -0.0130391 0.00736993
0.00132281 -0.0122832 0.00585815
0.00075589 -0.00774788 0.00283459
-0.00321253 -0.00472431 0.00151178
-0.00548021 -0.0141729 0.00151178
-0.00510226 -0.0173855 0.00453534
-0.00585815 0.0132281 0.000377945
-0.00793685 -0.0096376 0.00188973
0.00793685 -0.00132281 -0.100533
0.000188973 0.00226767 -0.0153068
0.00982658 -0.00907068 -0.0202201
0.0168186 0.000566918 -0.0213539
0.00888171 0.0190862 -0.0404401