[Molden Format]
[FREQ]
7.4
11.3
23.4
28.5
31.8
39.4
41.4
46.9
49.7
53.7
75.3
86.8
103.1
108.5
116.9
135.2
144.2
171.5
177.1
184.5
206.2
225.1
229.5
242.2
251.9
258.4
278.6
282.9
292.1
318.7
326.2
334.8
348.1
358.2
361.6
364.6
379.4
403.4
422.0
423.2
449.6
488.5
502.3
515.6
526.8
533.3
541.0
550.8
563.1
578.4
588.2
610.5
614.9
627.4
642.6
662.1
665.0
673.1
706.9
713.3
737.9
753.0
774.0
790.2
804.8
831.4
833.1
847.0
870.4
881.0
883.5
894.7
901.0
918.0
943.1
961.5
973.3
1000.7
1005.0
1007.3
1010.2
1013.9
1017.3
1024.1
1033.0
1046.7
1071.4
1074.9
1080.3
1105.2
1126.4
1139.4
1159.5
1178.6
1179.1
1183.7
1189.1
1199.8
1204.9
1239.2
1247.2
1253.2
1263.8
1268.7
1273.9
1284.1
1285.7
1287.3
1298.0
1302.8
1309.9
1317.0
1322.9
1339.8
1339.9
1349.9
1350.6
1360.2
1366.5
1383.9
1395.1
1410.8
1428.2
1500.8
1520.1
1523.1
1529.4
1533.2
1544.0
1560.6
1565.6
1605.0
1607.6
1650.9
1685.7
1698.9
1704.0
1707.6
1711.5
1715.9
1720.9
1881.1
1922.0
2449.7
2651.7
2653.8
2667.6
2674.6
2743.7
2744.6
2745.1
2746.1
2746.3
2748.5
2750.0
2751.6
2755.4
2763.8
2764.8
2765.5
2766.1
2767.6
2769.2
2775.3
2780.0
       
[FR-COORD]
C -2.4746 -3.16019 -0.241885
C 0.161572 -3.16019 -0.241885
C 1.44866 -0.842818 -0.241885
N 0.240751 1.38763 -0.182737
C -2.33532 1.4154 -0.120565
C -3.78758 -0.848109 -0.190484
N -3.4119 3.78399 -0.0572587
C -6.44793 -0.73397 -0.257948
N -8.63302 -0.603012 -0.317852
C -3.83236 -5.57186 -0.309726
C -3.25449 -7.33497 -2.20361
C -4.50964 -9.62778 -2.30547
C -6.35666 -10.1582 -0.469597
C -6.95778 -8.42818 1.42788
C -5.67995 -6.12933 1.48892
O -7.41831 -12.4714 -0.774032
C 4.22958 -0.688238 -0.265695
C 5.59189 -1.50044 1.84059
C 8.20935 -1.2612 1.86478
C 9.46658 -0.219964 -0.212027
C 8.09218 0.560871 -2.32663
C 5.47151 0.344308 -2.34969
C 12.2713 0.0410071 -0.1748
C -9.36208 -13.1712 0.94354
C -1.83039 6.01727 0.267774
C -0.0839038 5.92183 2.67812
C 2.53734 6.30564 1.78069
C 2.62162 6.58456 -0.865306
C 0.0655735 6.43962 -1.97401
C 4.73036 6.30035 3.19779
C 7.03904 6.60384 1.93281
C 7.11954 6.89032 -0.68049
C 4.8942 6.87445 -2.11744
O -0.564839 6.70078 -4.12546
O -0.817306 5.53217 4.77156
O -3.40718 8.09181 0.555957
H 1.21472 -4.92198 -0.238294
H -5.25873 3.98411 0.444086
H -1.82 -6.88408 -3.61637
H -4.10467 -11.0094 -3.77152
H -8.40153 -8.82653 2.8276
H -6.13311 -4.75568 2.9612
H 4.60054 -2.29035 3.465
H 9.28177 -1.88028 3.50487
H 9.07125 1.3487 -3.9518
H 4.3819 0.997964 -3.97277
H 13.0059 0.399677 1.73363
H 12.9388 1.59474 -1.3778
H 13.1806 -1.70094 -0.861904
H -9.8553 -15.0806 0.292719
H -10.9886 -11.9047 0.76704
H -8.64795 -13.2324 2.88315
H 4.67008 6.04901 5.24097
H 8.79101 6.59911 3.01411
H 8.93217 7.11425 -1.628
H 4.95146 7.06682 -4.16609
H -4.19198 8.57879 -1.07658

[FR-NORM-COORD]
Vibration 1
-0.000377945 0.0020787 -0.00566918
-0.000377945 0.00264562 -0.0124722
-0.00113384 0.00302356 -0.0160627
-0.00132281 0.00264562 -0.0130391
-0.00132281 0.00226767 -0.00642507
-0.00075589 0.00188973 -0.00245664
-0.000944863 0.0020787 -0.00264562
-0.000944863 0.00113384 0.0041574
-0.00113384 0.00075589 0.0096376
0.000188973 0.00170075 -0.00170075
-0.00359048 0.00132281 -0.00245664
-0.00264562 0.000566918 0.00151178
0.0020787 0.000377945 0.0062361
0.00566918 0.000944863 0.00680301
0.00472431 0.00151178 0.00283459
0.00264562 -0.000377945 0.00982658
-0.000944863 0.00434637 -0.0224877
0.00151178 0.0425188 -0.00944863
0.00151178 0.0451645 -0.0164406
-0.00170075 0.00982658 -0.0359048
-0.00453534 -0.0283459 -0.048188
-0.00434637 -0.0309915 -0.0417629
-0.00188973 0.0128501 -0.0436527
0.0075589 -0.00075589 0.0151178
0.000377945 0.0020787 -0.00793685
-0.020598 0.0168186 0.0075589
-0.0119053 0.00188973 0.0272121
0.0115273 -0.0171965 0.0258892
0.020409 -0.0185193 0.00491329
-0.0238105 0.00453534 0.0455424
-0.0119053 -0.0132281 0.0625499
0.0109604 -0.0325033 0.0612271
0.0228657 -0.034393 0.0427078
0.0391173 -0.0317474 -0.0020787
-0.0394953 0.034204 0.00434637
0.00151178 0.00680301 -0.0366607
0.000188973 0.00302356 -0.0145509
0.000188973 0.00283459 0.00113384
-0.00736993 0.00151178 -0.0062361
-0.00566918 0.000188973 0.000944863
0.00925966 0.00075589 0.0103935
0.0075589 0.00188973 0.00340151
0.00377945 0.0704868 0.00548021
0.00359048 0.0748331 -0.00661404
-0.00661404 -0.0563138 -0.0631168
-0.00642507 -0.0608492 -0.0523454
0.00151178 0.0349599 -0.0491329
-0.00566918 0.000188973 -0.0625499
-0.00151178 0.00604712 -0.0258892
0.00718096 -0.00151178 0.0173855
0.0062361 -0.0020787 0.0187083
0.0124722 0.000566918 0.0132281
-0.0417629 0.0198421 0.0468652
-0.020976 -0.0120942 0.0772898
0.0198421 -0.0472432 0.0746442
0.0408181 -0.0502667 0.0417629
0.0120942 -0.0075589 -0.0461093
Vibration 2
-0.00075589 -0.000944863 0.00925966
-0.000566918 -0.00075589 0.00850377
-0.00132281 -0.00075589 0.0153068
-0.00113384 -0.00113384 0.020787
-0.00132281 -0.00113384 0.020598
-0.000944863 -0.00113384 0.0170075
-0.000377945 -0.00113384 0.0222988
-0.00113384 -0.00113384 0.0200311
-0.00113384 -0.00075589 0.0228657
-0.00075589 -0.00075589 -0.000188973
-0.000377945 0.00736993 -0.00774788
-0.000944863 0.00812582 -0.0183303
-0.00188973 0.00075589 -0.0215429
-0.00188973 -0.0075589 -0.013984
-0.00132281 -0.00831479 -0.00321253
-0.00283459 0.00264562 -0.0325033
-0.000944863 0.00113384 0.0160627
-0.00510226 0.0676522 0.0442196
-0.00529123 0.0714316 0.0425188
-0.00226767 0.00925966 0.0134171
0.00132281 -0.0568808 -0.0134171
0.00170075 -0.0608492 -0.0128501
-0.00264562 0.013984 0.0100155
-0.0041574 -0.0041574 -0.0370386
0.00170075 -0.00075589 0.00982658
0.0132281 0.00566918 0.00170075
0.00925966 0.00188973 -0.0120942
-0.00302356 -0.00850377 -0.013606
-0.00850377 -0.00888171 -0.000566918
0.0158737 0.00642507 -0.0224877
0.0102045 -0.00075589 -0.034771
-0.00188973 -0.0130391 -0.0364717
-0.00869274 -0.0168186 -0.0257003
-0.0190862 -0.0147399 0.00170075
0.0234326 0.0126612 0.00661404
0.00377945 0.000566918 0.0111494
-0.000377945 -0.00075589 0.00377945
0.000944863 0.000566918 0.0262672
0.000377945 0.0132281 -0.00510226
-0.00075589 0.0145509 -0.0243775
-0.00245664 -0.0134171 -0.0162516
-0.00132281 -0.0147399 0.00283459
-0.00793685 0.116974 0.0663294
-0.00850377 0.123021 0.0640617
0.00434637 -0.105636 -0.0353379
0.00472431 -0.11225 -0.0353379
-0.000377945 0.0287238 0.0062361
-0.00699199 0.00661404 -0.0020787
-0.000377945 0.0105825 0.0211649
-0.00529123 -0.00075589 -0.0462983
-0.00321253 -0.00226767 -0.0317474
-0.00529123 -0.013984 -0.0368497
0.0255113 0.0153068 -0.0211649
0.0153068 0.00302356 -0.0428968
-0.00604712 -0.0196532 -0.0461093
-0.0181414 -0.0264562 -0.0268341
-0.00245664 -0.00302356 0.0130391
Vibration 3
-0.00283459 0.00359048 -0.0219208
-0.00283459 0.00264562 -0.0149288
-0.00245664 0.00226767 -0.0132281
-0.00170075 0.00245664 -0.0147399
-0.00188973 0.00359048 -0.0228657
-0.00226767 0.0041574 -0.0319364
-0.000377945 0.00434637 -0.0188973
-0.00188973 0.00491329 -0.0495108
-0.00132281 0.00548021 -0.0655735
-0.00302356 0.00340151 -0.0115273
0.00245664 -0.0109604 0.00359048
0.00566918 -0.013606 0.0202201
0.00359048 -0.00132281 0.0215429
-0.00359048 0.013984 0.00510226
-0.00699199 0.0162516 -0.0113384
0.00907068 -0.00642507 0.0404401
-0.00226767 0.00283459 -0.00736993
-0.00869274 0.0383614 0.0103935
-0.00888171 0.0404401 0.0149288
-0.00302356 0.00736993 0.00188973
0.00321253 -0.0279679 -0.0153068
0.00340151 -0.0302356 -0.020409
-0.00321253 0.0100155 0.00548021
0.0111494 0.00283459 0.0464873
0.000377945 0 0.00944863
0.00491329 -0.0340151 0.00529123
0.00359048 -0.0239995 0.00566918
-0.00075589 0.00944863 0.00888171
-0.00321253 0.0300466 0.0120942
0.00604712 -0.0449755 0.00170075
0.00434637 -0.0334482 0.00132281
0.000188973 -0.00188973 0.00472431
-0.00245664 0.0202201 0.00850377
-0.0075589 0.0642507 0.0175745
0.00850377 -0.062361 0.00113384
0.000944863 -0.00396842 0.0406291
-0.00321253 0.00245664 -0.00888171
-0.00340151 0.00283459 -0.0294797
0.00434637 -0.020598 0.00264562
0.0103935 -0.0249444 0.0323143
-0.0062361 0.0239995 0.00529123
-0.0119053 0.0279679 -0.0238105
-0.0134171 0.0648176 0.0202201
-0.013984 0.0682191 0.0285349
0.00812582 -0.0540462 -0.0249444
0.00831479 -0.0574477 -0.034393
-0.00491329 0.0102045 0.00585815
-0.0041574 0.0109604 0.0062361
-0.000944863 0.0111494 0.00566918
0.0181414 -0.00510226 0.0644397
0.00680301 -0.00453534 0.0340151
0.0107714 0.0236216 0.0474321
0.00925966 -0.0704868 -0.00132281
0.0062361 -0.0495108 -0.00170075
-0.00113384 0.00604712 0.0041574
-0.00566918 0.0451645 0.0107714
0.00377945 0.0230547 0.0474321
Vibration 4
-0.0147399 0.0160627 -0.013606
-0.0149288 0.0122832 -0.0173855
-0.0115273 0.0103935 -0.00812582
-0.00812582 0.0119053 -0.00245664
-0.00831479 0.0151178 -0.00113384
-0.0117163 0.0171965 -0.00188973
-0.00472431 0.0166296 0.0020787
-0.0119053 0.0190862 0.0115273
-0.0122832 0.0198421 0.0241885
-0.0126612 0.0149288 -0.0179524
-0.0226767 0.02759 -0.0328812
-0.0062361 0.0185193 -0.0272121
0.020976 -0.00359048 -0.00604712
0.0251334 -0.0126612 0.00359048
0.0075589 -0.00264562 -0.00283459
0.0419519 -0.0143619 0.00264562
-0.0109604 0.00113384 -0.000377945
-0.0221098 -0.00736993 0.00377945
-0.020787 -0.0243775 0.0109604
-0.00831479 -0.0330702 0.0141729
0.00245664 -0.0226767 0.0109604
0.000944863 -0.00548021 0.00377945
-0.00642507 -0.0542351 0.020976
0.0837149 -0.0462983 0.0368497
-0.00132281 0.0147399 -0.000377945
-0.00113384 0.0145509 -0.00075589
0 0.00302356 -0.00245664
0 0.000188973 -0.00264562
-0.00113384 0.00944863 -0.00132281
0.00075589 -0.00548021 -0.00359048
0.00151178 -0.0177634 -0.00510226
0.00151178 -0.020976 -0.00548021
0.000566918 -0.0115273 -0.0041574
-0.00188973 0.0128501 -0.000566918
-0.00170075 0.0224877 0.000566918
0.00170075 0.0171965 -0.00226767
-0.0173855 0.0107714 -0.0260782
-0.00377945 0.0190862 0.00491329
-0.0419519 0.0438416 -0.0472432
-0.0128501 0.0270231 -0.0370386
0.0421409 -0.027779 0.0166296
0.0111494 -0.00944863 0.00453534
-0.0317474 -0.00132281 0.00075589
-0.0292908 -0.0315584 0.013795
0.0120942 -0.0287238 0.013984
0.0096376 0.00188973 0.000944863
-0.00793685 -0.0625499 0.0230547
0.00793685 -0.0576366 0.0245664
-0.0181414 -0.0602823 0.020409
0.101478 -0.0531013 0.0434637
0.0612271 -0.0710537 0.0672742
0.119242 -0.0374166 0.0241885
0.00075589 -0.00302356 -0.00321253
0.0020787 -0.0253223 -0.00604712
0.0020787 -0.0308025 -0.00661404
0.000377945 -0.013795 -0.00434637
0.0020787 0.0168186 -0.00264562
Vibration 5
-0.00151178 0.00774788 0.0175745
-0.00132281 0.00944863 0.0292908
-0.00188973 0.00944863 0.0234326
-0.0020787 0.00944863 0.0177634
-0.00226767 0.00850377 0.0117163
-0.00188973 0.00793685 0.0062361
-0.00396842 0.0075589 0.00831479
-0.00113384 0.0096376 -0.0151178
-0.000566918 0.0119053 -0.034393
0.00340151 0.00529123 0.0120942
0.0453534 -0.00925966 0.0379835
0.05518 -0.0141729 0.0326923
0.020976 -0.00472431 0.000944863
-0.0221098 0.0096376 -0.0258892
-0.0300466 0.013984 -0.0196532
0.0355268 -0.0111494 -0.000188973
-0.00170075 0.00434637 0.013795
0.00699199 -0.00113384 0.00585815
0.00888171 -0.0188973 -0.0122832
0.00188973 -0.0309915 -0.0224877
-0.0075589 -0.0213539 -0.0130391
-0.00907068 -0.00377945 0.00529123
0.00434637 -0.05518 -0.0447865
0.000188973 -0.00132281 -0.0360938
-0.00812582 0.0109604 0.00529123
-0.00699199 0.0173855 0.00472431
-0.00661404 0.00699199 0.00132281
-0.00812582 0.00283459 0.00075589
-0.0096376 0.0102045 0.00377945
-0.00510226 -0.000566918 -0.00113384
-0.00510226 -0.0134171 -0.0041574
-0.00661404 -0.0177634 -0.00453534
-0.00831479 -0.00925966 -0.0020787
-0.0124722 0.0147399 0.00510226
-0.00680301 0.0298577 0.00699199
-0.0119053 0.00831479 0.00245664
-0.000377945 0.0100155 0.0400622
-0.00585815 0.00661404 0.0020787
0.0710537 -0.0164406 0.0614161
0.0886281 -0.0253223 0.0523454
-0.048566 0.0171965 -0.0510226
-0.0625499 0.0238105 -0.0387394
0.0126612 0.00699199 0.0134171
0.0158737 -0.0241885 -0.0188973
-0.0134171 -0.0289128 -0.0200311
-0.0158737 0.00245664 0.0122832
0.0234326 -0.0661404 -0.0500777
0.00774788 -0.0580146 -0.0466762
-0.0164406 -0.0614161 -0.0566918
0.020598 -0.00907068 -0.0291018
0 -0.00812582 -0.0833369
-0.0419519 0.0188973 -0.0198421
-0.00396842 0.00302356 -0.000566918
-0.00377945 -0.020409 -0.00604712
-0.00642507 -0.0281569 -0.00699199
-0.0096376 -0.0124722 -0.00245664
-0.0103935 0.00661404 0.00113384
Vibration 6
-0.00453534 0.00113384 -0.000944863
-0.00434637 0 -0.00188973
-0.00321253 -0.00075589 -0.0020787
-0.00226767 -0.000377945 -0.000188973
-0.0020787 0.000944863 0.00188973
-0.00340151 0.00170075 0.000566918
0 0.00170075 0.00510226
-0.00321253 0.00396842 0.000188973
-0.00321253 0.00642507 -0.000188973
-0.0041574 0.000944863 -0.00188973
0.00396842 -0.00264562 0.00377945
0.00718096 -0.00434637 0.00453534
0.00188973 -0.00283459 -0.000377945
-0.0075589 0.00113384 -0.00699199
-0.0103935 0.00283459 -0.0075589
0.00699199 -0.00548021 0.0020787
-0.00321253 -0.000377945 -0.0041574
-0.00113384 -0.00699199 -0.00718096
-0.00245664 -0.00283459 -0.0075589
-0.00396842 0.0075589 -0.00472431
-0.00491329 0.0120942 -0.000944863
-0.00548021 0.00793685 -0.000566918
-0.00434637 0.00907068 0.013795
0.00340151 -0.00510226 -0.00188973
0.00321253 -0.000188973 0.00377945
0.00529123 -0.00170075 0.00226767
0.00453534 -0.00188973 0.000188973
0.00264562 -0.00283459 0
0.00170075 -0.00283459 0.0020787
0.00566918 -0.000944863 -0.00132281
0.00472431 -0.00132281 -0.00321253
0.00283459 -0.00302356 -0.00340151
0.00188973 -0.00359048 -0.00170075
0.000566918 -0.00472431 0.0020787
0.00699199 -0.00245664 0.00264562
0.00604712 0.00188973 0.00491329
-0.00510226 -0.000377945 -0.00245664
0.000944863 0.00340151 0.0075589
0.00793685 -0.00396842 0.00736993
0.013984 -0.00718096 0.00907068
-0.0122832 0.00283459 -0.0113384
-0.0171965 0.00529123 -0.0119053
0 -0.0147399 -0.0102045
0.00113384 -0.0062361 -0.0113384
-0.00888171 0.0194642 0.000188973
-0.00661404 0.0124722 0.00188973
-0.0754001 0.473943 -0.0449755
0.0487549 -0.290262 -0.341285
0.0130391 -0.162705 0.472809
0.0103935 -0.00831479 0.00226767
0.00075589 -0.00982658 -0.0109604
-0.00264562 0.00245664 0.000566918
0.00699199 0 -0.00113384
0.00548021 0 -0.00453534
0.00245664 -0.0041574 -0.00472431
0.000377945 -0.00453534 -0.00188973
0.00453534 0.00226767 0.00566918
Vibration 7
0.0232436 -0.00302356 0.00453534
0.0226767 0.00340151 0.00453534
0.0162516 0.0075589 0.00245664
0.0107714 0.00472431 -0.00302356
0.0103935 -0.0020787 -0.00604712
0.0171965 -0.00642507 -0.000377945
-0.00113384 -0.00718096 -0.0149288
0.0166296 -0.0175745 0.00226767
0.0158737 -0.0285349 0.00472431
0.0234326 -0.00321253 0.00869274
-0.00548021 0.00888171 -0.0107714
-0.0198421 0.0166296 -0.0151178
-0.00321253 0.0130391 0.000377945
0.0319364 -0.00170075 0.0249444
0.0445975 -0.00907068 0.0287238
-0.0258892 0.0247554 -0.0109604
0.0162516 0.00718096 0.00491329
0.0132281 0.00907068 0.00793685
0.0145509 -0.00699199 0.00491329
0.0196532 -0.0247554 -0.00132281
0.0222988 -0.0219208 -0.00170075
0.020598 -0.00566918 0.00151178
0.0219208 -0.0491329 -0.00529123
-0.0213539 0.0292908 -0.00396842
-0.0187083 0.00396842 -0.00642507
-0.0224877 0.00793685 -0.00396842
-0.020976 0.00226767 -0.00170075
-0.0187083 0.0105825 -0.000944863
-0.0187083 0.0243775 -0.00226767
-0.0217318 -0.0132281 -0.000944863
-0.0196532 -0.0221098 0.000566918
-0.0171965 -0.0143619 0.00151178
-0.0168186 0.00283459 0.00075589
-0.0200311 0.048566 0.00113384
-0.0260782 0.0145509 -0.00396842
-0.0359048 -0.0096376 -0.00321253
0.0270231 0.00604712 0.0062361
-0.00529123 -0.0173855 -0.0241885
-0.0185193 0.0126612 -0.0226767
-0.0444086 0.0264562 -0.0311805
0.047999 -0.00680301 0.0402512
0.0702978 -0.0185193 0.0451645
0.0096376 0.0213539 0.0117163
0.0122832 -0.00680301 0.00642507
0.0253223 -0.0334482 -0.00548021
0.0234326 -0.00453534 0
0.020598 0.00510226 -0.0149288
0.0396842 -0.0942973 -0.0534792
0.00699199 -0.0797464 0.0525344
-0.0502667 0.0428968 -0.0219208
-0.00718096 0.0514005 0.0234326
-0.00661404 -0.00170075 -0.0103935
-0.0236216 -0.0194642 -0.00170075
-0.0198421 -0.0357158 0.00113384
-0.0154958 -0.0221098 0.00283459
-0.0149288 0.00925966 0.00151178
-0.0304246 -0.00604712 -0.00491329
Vibration 8
-0.00113384 0.00472431 0.00774788
-0.00075589 0.00604712 -0.00264562
-0.00132281 0.00585815 -0.0122832
-0.00226767 0.00585815 -0.020409
-0.00170075 0.00566918 -0.0102045
-0.00151178 0.00453534 0.0119053
-0.00170075 0.00642507 -0.0217318
-0.00226767 0.00548021 0.0462983
-0.00302356 0.00793685 0.0799354
0.00302356 0.00245664 0.0100155
0.020787 -0.00264562 0.0196532
0.0255113 -0.00472431 0.0156847
0.0103935 -0.0020787 0.00132281
-0.00604712 0.00151178 -0.00718096
-0.00888171 0.00302356 -0.0020787
0.0147399 -0.00340151 -0.00302356
-0.00151178 0.00793685 -0.00925966
-0.00491329 -0.00170075 -0.0103935
-0.00604712 0.00907068 0.000377945
-0.00340151 0.0291018 0.0120942
0.000944863 0.0338261 0.0109604
0.00188973 0.0232436 0.000377945
-0.00510226 0.0472432 0.0260782
-0.0119053 0.00585815 -0.0294797
-0.00245664 0.00661404 -0.0141729
-0.00585815 -0.00491329 -0.0120942
-0.00188973 -0.0270231 -0.00925966
0.00188973 -0.0147399 -0.00793685
0.00075589 0.0156847 -0.00944863
-0.00245664 -0.0608492 -0.00850377
0.00151178 -0.0822031 -0.0062361
0.00548021 -0.068786 -0.00472431
0.00566918 -0.034204 -0.00548021
0.0020787 0.0457314 -0.0062361
-0.0119053 0.00188973 -0.0128501
-0.00377945 0.00472431 -0.00888171
0 0.00642507 -0.0020787
-0.0020787 0.00718096 -0.0215429
0.0311805 -0.00434637 0.0294797
0.0398732 -0.00831479 0.0230547
-0.0162516 0.00302356 -0.0171965
-0.020976 0.00453534 -0.00718096
-0.00718096 -0.0164406 -0.0188973
-0.00925966 0.00264562 0
0.00359048 0.0470542 0.0188973
0.00491329 0.0283459 0.000377945
-0.0141729 0.0253223 0.0336371
-0.0113384 0.0684081 0.0500777
0.00907068 0.0629279 0.00491329
-0.0075589 0.00566918 -0.0319364
-0.00604712 0.00982658 -0.0557469
-0.0398732 0.00850377 -0.0190862
-0.00604712 -0.0714316 -0.00982658
0.00113384 -0.109982 -0.00585815
0.00850377 -0.0859825 -0.00302356
0.00869274 -0.0238105 -0.00434637
0.00245664 0.0132281 -0.0096376
Vibration 9
-0.00396842 0 0.00132281
-0.00377945 0.000944863 -0.0115273
-0.00321253 0.000377945 -0.0187083
-0.0020787 0.00113384 -0.0264562
-0.00188973 0.000944863 -0.0168186
-0.00283459 0.000566918 0.00793685
-0.00075589 0.00264562 -0.0306136
-0.00396842 0.00359048 0.0510226
-0.00491329 0.00793685 0.0939194
-0.000566918 -0.00188973 0.00566918
0.0170075 -0.00925966 0.0171965
0.0219208 -0.0117163 0.0160627
0.00699199 -0.00718096 0.00245664
-0.0096376 -0.00113384 -0.00831479
-0.0124722 0.000566918 -0.00585815
0.0119053 -0.00925966 0.00132281
-0.00283459 -0.00377945 -0.0126612
-0.013984 0.00982658 0
-0.0132281 -0.00264562 0.00699199
-0.00132281 -0.0285349 0.00113384
0.00944863 -0.0381725 -0.00944863
0.00831479 -0.0255113 -0.0164406
0.000377945 -0.0474321 0.0062361
-0.0147399 0.0020787 -0.0241885
0.00283459 -0.00170075 -0.0164406
-0.00245664 -0.0211649 -0.0132281
-0.00283459 0.00680301 -0.00113384
0.00377945 0.0247554 0.00113384
0.00831479 0.0128501 -0.00888171
-0.00793685 0.0183303 0.00699199
-0.00642507 0.0493218 0.0173855
0.000188973 0.0674632 0.0196532
0.00566918 0.0548021 0.0113384
0.0160627 0.0162516 -0.0105825
-0.00604712 -0.0576366 -0.0211649
0.00604712 -0.000566918 -0.00566918
-0.00321253 0.00113384 -0.0126612
-0.000188973 0.00453534 -0.02759
0.0270231 -0.0126612 0.0260782
0.0364717 -0.0170075 0.0251334
-0.0196532 0.00188973 -0.0177634
-0.0245664 0.00340151 -0.0120942
-0.0236216 0.0291018 0.00377945
-0.0217318 0.00736993 0.0162516
0.0187083 -0.0563138 -0.0126612
0.0168186 -0.0338261 -0.0253223
-0.00151178 -0.041196 0.00585815
0.013795 -0.0589595 -0.00132281
-0.0100155 -0.0578256 0.0185193
-0.0096376 0.000566918 -0.0238105
-0.00925966 0.00510226 -0.0525344
-0.0428968 0.00793685 -0.013606
-0.0132281 0.0041574 0.00510226
-0.0102045 0.0595264 0.0236216
0.00132281 0.0924076 0.02759
0.0111494 0.068786 0.0128501
0.00736993 0.00944863 -0.00340151
Vibration 10
-0.00774788 0.00302356 0.0370386
-0.00793685 -0.000377945 0.0574477
-0.00604712 -0.00151178 0.0432747
-0.00566918 -0.000566918 0.0194642
-0.00585815 0.00283459 0.0020787
-0.00718096 0.00377945 0.0122832
-0.000377945 0.00718096 -0.0349599
-0.00699199 0.00170075 -0.00340151
-0.00680301 -0.00226767 -0.0162516
-0.00831479 0.00340151 0.0262672
-0.0160627 0.0241885 0.00434637
-0.013984 0.0241885 -0.0134171
-0.0020787 0.00226767 -0.0075589
0.00548021 -0.0181414 0.0134171
0.00151178 -0.0158737 0.0296687
0.000566918 0.00359048 -0.0272121
-0.00661404 0.00075589 0.0313695
0.0124722 0.00359048 0.0194642
0.0128501 0.00718096 -0.00396842
-0.00680301 0.00774788 -0.0154958
-0.0262672 0.0062361 -0.00340151
-0.0258892 0.00264562 0.0202201
-0.00661404 0.0100155 -0.0419519
0.0241885 -0.0272121 -0.0132281
0.00699199 0.000944863 -0.0211649
0.00151178 -0.020409 -0.0177634
0.00377945 -0.0124722 -0.0075589
0.0109604 0.00377945 -0.00548021
0.0141729 0.00869274 -0.013795
-0.000566918 -0.0200311 -0.000944863
0.00302356 -0.00944863 0.00812582
0.0103935 0.00850377 0.0102045
0.0147399 0.0149288 0.00340151
0.0221098 0.0183303 -0.0151178
-0.0041574 -0.0421409 -0.0238105
0.0141729 0.00529123 -0.013984
-0.0102045 -0.00170075 0.0774788
-0.00359048 0.0160627 -0.0495108
-0.0238105 0.0410071 0.00188973
-0.020976 0.0404401 -0.0306136
0.013795 -0.0351489 0.0170075
0.00566918 -0.0296687 0.0434637
0.0279679 0.00283459 0.0285349
0.0281569 0.00907068 -0.0134171
-0.0417629 0.00774788 -0.0120942
-0.041196 0.00132281 0.0298577
0.00925966 0.027779 -0.0514005
-0.0177634 -0.000377945 -0.0616051
-0.0113384 0.00453534 -0.034204
0.0264562 -0.0217318 -0.0306136
0.0156847 -0.0334482 0.020787
0.0466762 -0.0468652 -0.0222988
-0.00661404 -0.0338261 -0.00283459
-0.000188973 -0.0149288 0.0132281
0.0128501 0.0175745 0.0171965
0.020787 0.0289128 0.00491329
0.0217318 0.0185193 -0.0134171
Vibration 11
0.00302356 -0.0145509 0.00377945
0.00359048 -0.0234326 0.00774788
0.0120942 -0.0281569 0.0111494
0.0213539 -0.0217318 0.0107714
0.0221098 -0.0130391 0.00453534
0.013795 -0.00888171 0.0062361
0.0194642 -0.013984 -0.00869274
0.0143619 0.00699199 0.0128501
0.0151178 0.0255113 0.0219208
-0.0105825 -0.00718096 -0.00604712
-0.0020787 -0.0149288 0.00359048
-0.0119053 -0.00944863 -0.00302356
-0.0298577 0.00170075 -0.0179524
-0.0461093 0.0132281 -0.0334482
-0.0360938 0.0075589 -0.0272121
-0.0328812 0.00321253 -0.0187083
0.0128501 -0.0325033 0.00548021
0.0221098 -0.0247554 0.00226767
0.020787 -0.00680301 -0.00226767
0.0105825 0.00302356 -0.00340151
0.00245664 -0.0145509 -0.00472431
0.00396842 -0.0323143 -0.000188973
0.0075589 0.0364717 -0.00321253
0.0359048 -0.0360938 0.0430858
-0.000566918 -0.00132281 -0.00604712
-0.00566918 0.0171965 -0.00245664
-0.00434637 0.0120942 -0.000944863
-0.0020787 0.0154958 -0.000566918
-0.00170075 0.0239995 -0.00151178
-0.00566918 0.00793685 0.000944863
-0.00434637 0.00736993 0.00340151
-0.00188973 0.0111494 0.00377945
-0.00075589 0.0154958 0.00188973
-0.00472431 0.0557469 0.00321253
-0.0102045 0.0402512 0.000188973
-0.0238105 -0.0177634 -0.00907068
-0.00264562 -0.0270231 0.00699199
0.013984 -0.0188973 -0.0222988
0.0143619 -0.0260782 0.0166296
-0.00340151 -0.0149288 0.00453534
-0.0665184 0.0268341 -0.0506447
-0.0476211 0.0141729 -0.0368497
0.0302356 -0.0302356 0.00453534
0.027401 0.00151178 -0.00340151
-0.00529123 -0.0119053 -0.00812582
-0.00245664 -0.0430858 -0.000188973
0.00226767 0.0489439 -0.00359048
-0.0111494 0.0427078 -0.00566918
0.0291018 0.0466762 0.000188973
0.0610381 -0.0500777 0.0651955
0.00151178 -0.0744552 0.0857936
0.0941084 -0.0119053 0.0224877
-0.00774788 0.00566918 0.00075589
-0.00529123 0.0041574 0.00472431
-0.000944863 0.0111494 0.00566918
0.00113384 0.0190862 0.00226767
-0.0164406 -0.0187083 -0.0130391
Vibration 12
-0.0158737 -0.00396842 0.00340151
-0.0156847 -0.0154958 0.00283459
-0.00566918 -0.0217318 -0.00377945
0.00585815 -0.0149288 -0.00434637
0.00642507 -0.00302356 -0.00170075
-0.00434637 0.0020787 -0.00132281
0.0143619 0.000188973 -0.000188973
-0.00359048 0.0122832 -0.0105825
-0.00283459 0.0198421 -0.0217318
-0.0162516 -0.00453534 0.00566918
-0.0281569 0.00793685 -0.0102045
-0.0100155 -0.0020787 -0.00302356
0.0181414 -0.0247554 0.0188973
0.0289128 -0.0368497 0.0332592
0.0105825 -0.0257003 0.0258892
0.0421409 -0.0372276 0.0281569
-0.00548021 -0.0328812 -0.0100155
-0.00453534 -0.0302356 -0.0096376
-0.00585815 -0.0149288 -0.00529123
-0.00907068 -0.00283459 -0.000944863
-0.00869274 -0.0211649 -0.00812582
-0.00736993 -0.0359048 -0.0126612
-0.0128501 0.0355268 0.0130391
-0.041385 0.000944863 -0.0510226
0.00812582 0.00453534 0
0.00604712 0.020787 0.00188973
0.00736993 0.0126612 0.00132281
0.00793685 0.0128501 0.00132281
0.00718096 0.0222988 0.00264562
0.00699199 0.0130391 0.00170075
0.00736993 0.0128501 0.00245664
0.00812582 0.0124722 0.00245664
0.00850377 0.0124722 0.00188973
0.00359048 0.0540462 0.00736993
0.00377945 0.0491329 0.0062361
-0.00340151 -0.00283459 -0.00226767
-0.0234326 -0.020409 0.00566918
0.0119053 0.00245664 -0.00774788
-0.0512116 0.0260782 -0.027779
-0.0181414 0.0075589 -0.0141729
0.0529123 -0.0563138 0.0525344
0.0177634 -0.0340151 0.0359048
-0.00283459 -0.0364717 -0.0117163
-0.00491329 -0.00907068 -0.00359048
-0.00982658 -0.0202201 -0.00831479
-0.00793685 -0.0464873 -0.0162516
-0.027779 0.0442196 0.0171965
-0.0289128 0.0464873 0.0183303
0.0154958 0.0493218 0.0160627
-0.0498888 0.00925966 -0.068975
-0.0113384 0.0304246 -0.117163
-0.119998 -0.0102045 -0.0224877
0.00642507 0.0141729 0.00188973
0.00699199 0.013795 0.00302356
0.00831479 0.0126612 0.00283459
0.00888171 0.0128501 0.00188973
0.00264562 -0.00170075 -0.00510226
Vibration 13
0.00151178 -0.00340151 -0.0383614
0.00188973 -0.00529123 -0.0270231
0.00302356 -0.00604712 0.0338261
0.00321253 -0.00642507 0.0600933
0.00283459 -0.00472431 0.0177634
0.00264562 -0.00340151 -0.0096376
0.00151178 -0.0041574 -0.00888171
0.00245664 0.00491329 0.00907068
0.00245664 0.0183303 0.0355268
-0.00396842 -0.000188973 -0.0506447
-0.0190862 -0.00774788 -0.0472432
-0.013795 -0.0130391 -0.020598
0.00585815 -0.00793685 0.000188973
0.00793685 0.00850377 -0.013795
0.00434637 0.00982658 -0.0379835
0.0270231 -0.0241885 0.048377
0.00321253 0.00226767 0.041574
0.0202201 0.00888171 0.0321253
0.0211649 0.0107714 0.00925966
0.00377945 0.00661404 -0.00302356
-0.0153068 0.0128501 0.0113384
-0.0143619 0.00982658 0.0340151
0.00548021 -0.00699199 -0.0383614
-0.0258892 0.0311805 0.0120942
-0.00132281 -0.00226767 -0.00699199
-0.00396842 -0.00302356 -0.00566918
-0.00264562 -0.0075589 -0.00396842
-0.00151178 0.00566918 -0.00264562
0.000377945 -0.000944863 -0.00548021
-0.00302356 -0.0221098 -0.00340151
-0.00245664 -0.0153068 -0.00075589
-0.00170075 0.00869274 0.00188973
-0.00113384 0.0181414 0.00075589
0.00377945 -0.0111494 -0.00774788
-0.00793685 0.00283459 -0.00604712
-0.00396842 -0.00359048 -0.0109604
0.000566918 -0.00604712 -0.0578256
-0.0020787 -0.00132281 -0.0222988
-0.0336371 -0.0122832 -0.0631168
-0.0219208 -0.0215429 -0.0147399
0.0164406 0.0171965 -0.00245664
0.0115273 0.0185193 -0.0436527
0.034582 0.0100155 0.041196
0.0353379 0.0126612 0.00075589
-0.0302356 0.0170075 0.00453534
-0.0287238 0.0117163 0.0440306
0.0306136 0.00132281 -0.0496998
-0.00075589 -0.0185193 -0.0566918
-0.0122832 -0.0162516 -0.0383614
-0.0168186 0.0162516 0.0489439
-0.0141729 0.0349599 -0.0680301
-0.0812582 0.0784236 0.0340151
-0.00396842 -0.0381725 -0.00548021
-0.00245664 -0.02759 -0.000566918
-0.00170075 0.0187083 0.00472431
-0.000188973 0.0340151 0.00245664
-0.00151178 -0.00529123 -0.0126612
Vibration 14
-0.000566918 0.000566918 0.00982658
-0.000566918 0.00132281 0.00302356
-0.00132281 0.00170075 -0.0109604
-0.000944863 0.00151178 -0.0115273
-0.00113384 0.000944863 0.000944863
-0.000944863 0.000377945 0.00566918
0.000188973 0.000188973 0.0158737
-0.00075589 -0.00226767 -0.00188973
-0.00075589 -0.00680301 -0.0124722
0.00151178 -0.00075589 0.013795
0.00604712 0.00075589 0.013606
0.00453534 0.0020787 0.00680301
-0.00132281 0.00113384 0.000566918
-0.00151178 -0.00321253 0.00453534
-0.000566918 -0.00359048 0.0107714
-0.00850377 0.00642507 -0.013606
-0.00132281 -0.00075589 -0.0134171
-0.00774788 0.0020787 -0.00793685
-0.00793685 0.00132281 -0.000188973
-0.00170075 -0.00264562 0.00151178
0.00510226 -0.00907068 -0.00529123
0.00491329 -0.0075589 -0.0128501
-0.0020787 0.000188973 0.0128501
0.0062361 -0.00888171 -0.00340151
0.00113384 0.00132281 0.00188973
-0.000377945 0.0103935 0.00321253
0.00491329 -0.0372276 -0.00226767
-0.00283459 0.0387394 0.00566918
0.0020787 -0.00680301 0.000377945
0.0119053 -0.118108 -0.0134171
0.00736993 -0.0695419 -0.0102045
-0.00510226 0.0740773 0.00510226
-0.00982658 0.120942 0.0119053
0.00907068 -0.0763449 -0.00982658
-0.00888171 0.0833369 0.013795
0.00226767 0.00396842 -0.00907068
0 0.00170075 0.00680301
0.000944863 0.000566918 0.0170075
0.0100155 0.00170075 0.0179524
0.00699199 0.0041574 0.00548021
-0.00359048 -0.00548021 0.00170075
-0.00245664 -0.00585815 0.0120942
-0.0128501 0.00510226 -0.0096376
-0.0130391 0.00453534 0.0041574
0.0103935 -0.013606 -0.00434637
0.0100155 -0.0113384 -0.0179524
-0.0102045 0.00226767 0.0154958
0.000944863 0.000188973 0.0143619
0.00264562 0.00075589 0.0175745
0.00170075 -0.00359048 -0.0154958
0.00396842 -0.00831479 0.020787
0.0224877 -0.0245664 -0.00982658
0.0202201 -0.209193 -0.0243775
0.0128501 -0.135304 -0.0194642
-0.0109604 0.142296 0.0102045
-0.0179524 0.212216 0.0202201
-0.00793685 -0.0124722 -0.00869274
Vibration 15
0.0062361 0.00812582 0.0149288
0.00718096 0.00170075 0.0175745
0.0154958 -0.00321253 0.00264562
0.020787 0.00188973 -0.00377945
0.0213539 0.00359048 0.00226767
0.0134171 0.00850377 0.00661404
-0.00075589 -0.00642507 0.00188973
0.0158737 0.0597153 -0.0020787
0.0215429 0.148721 -0.0109604
0.00075589 0.0134171 0.0111494
-0.00453534 0.0247554 -0.000944863
-0.00132281 0.0239995 -0.00510226
0.0103935 0.0134171 0.00359048
0.0109604 0.00585815 0.0105825
0.00548021 0.00888171 0.013606
0.0236216 0.00736993 0.00453534
0.0175745 -0.0200311 -0.0075589
0.020409 -0.0270231 -0.0115273
0.0200311 -0.0213539 -0.00888171
0.0194642 -0.00774788 -0.00245664
0.0200311 -0.0253223 -0.00925966
0.0202201 -0.0308025 -0.0113384
0.0154958 0.0357158 0.0166296
0.00680301 0.00888171 -0.0141729
-0.0202201 0.00359048 0.00264562
-0.0222988 -0.0149288 0.00132281