[Molden Format]
[FREQ]
-5.7
20.5
23.2
25.4
36.9
40.4
48.0
52.5
70.7
82.3
87.0
97.9
103.2
113.6
135.4
136.5
161.6
169.4
182.6
190.2
213.0
215.1
224.1
240.2
259.1
268.7
278.4
295.6
303.0
313.7
327.6
333.2
334.9
348.7
357.3
359.4
386.6
406.4
432.8
440.9
481.9
493.3
496.6
514.5
521.2
542.8
543.2
551.4
581.5
603.2
610.1
613.0
620.9
630.2
644.2
669.2
706.3
715.1
719.2
729.0
742.4
754.0
769.2
782.9
806.0
834.7
845.2
879.6
880.5
884.0
893.5
895.8
904.3
943.4
959.9
974.0
988.0
1003.5
1005.1
1007.5
1009.5
1015.9
1018.5
1033.4
1039.2
1045.4
1052.8
1077.2
1081.4
1082.2
1118.6
1125.9
1157.2
1164.2
1180.1
1186.9
1188.2
1188.7
1207.3
1241.2
1244.7
1259.1
1263.8
1267.9
1278.2
1281.0
1282.5
1286.6
1297.8
1299.3
1310.4
1315.7
1333.1
1340.3
1345.4
1351.6
1358.8
1364.9
1378.1
1388.4
1393.2
1427.6
1430.6
1448.7
1487.6
1500.7
1518.5
1521.5
1530.6
1537.5
1552.0
1555.9
1592.6
1600.6
1648.8
1679.0
1691.0
1691.6
1710.7
1714.4
1727.4
1734.8
1905.8
2429.6
2651.2
2655.3
2668.3
2673.2
2723.3
2743.1
2743.8
2744.2
2745.8
2747.0
2749.6
2752.8
2753.6
2757.8
2763.9
2765.0
2767.9
2768.4
2769.2
2780.2
2781.5
       
[FR-COORD]
C -1.17976 -3.13638 -0.953745
C 1.46076 -3.13638 -0.953745
C 2.79623 -0.846975 -0.953745
N 1.56923 1.40312 -1.02612
C -0.963949 1.42259 -1.1242
C -2.45797 -0.812582 -1.018
N -2.16997 3.73353 -1.56961
C -5.1102 -0.591673 -1.10776
N -7.28263 -0.275144 -1.22076
C -2.56644 -5.52291 -0.90688
C -2.0666 -7.38581 -2.73292
C -3.3828 -9.64384 -2.71006
C -5.21338 -10.0515 -0.83129
C -5.72852 -8.22465 1.0059
C -4.39324 -5.96416 0.945619
O -6.35175 -12.3403 -1.02707
C 5.56827 -0.738316 -0.91973
C 6.97498 -2.71743 0.135871
C 9.59603 -2.62823 0.126234
C 10.8546 -0.555957 -0.932958
C 9.45713 1.42429 -1.97665
C 6.82852 1.33944 -1.96475
C 13.6686 -0.453156 -0.955823
C -8.31517 -12.8853 0.725277
C -1.04615 6.28239 -1.68242
C -3.13808 5.57564 0.299333
C -1.92714 5.84209 2.81909
C 0.613594 6.63483 2.54055
C 1.34416 6.94663 -0.160249
C -2.98879 5.55447 5.17596
C -1.49251 6.09777 7.30209
C 0.999287 6.8735 7.03224
C 2.0923 7.13334 4.62473
O 3.31118 7.65339 -0.99683
O -5.64499 6.10287 0.176311
O -1.29012 7.57534 -3.86147
H 2.47856 -4.92481 -0.959414
H -6.57511 4.78063 -0.798031
H -0.648176 -7.02808 -4.18801
H -3.03584 -11.1008 -4.11752
H -7.14846 -8.53684 2.45041
H -4.78365 -4.51682 2.36575
H 6.01897 -4.3356 0.977933
H 10.6754 -4.17252 0.941273
H 10.4182 3.04133 -2.80379
H 5.73078 2.90167 -2.76864
H 14.5477 -2.16695 -0.184059
H 14.3738 1.15047 0.164973
H 14.4018 -0.215996 -2.88637
H -8.92348 -14.7788 0.13606
H -9.86928 -11.5332 0.528178
H -7.58215 -12.9303 2.65884
H -4.94938 4.96563 5.3912
H -2.31019 5.90974 9.1801
H 2.12915 7.28754 8.7003
H 4.04742 7.7407 4.41553
H -2.81286 7.01334 -4.81918

[FR-NORM-COORD]
Vibration 1
-0.00774788 -0.00604712 0.00170075
-0.00774788 -0.00226767 0.00604712
-0.0107714 -0.000566918 0.0124722
-0.0141729 -0.00226767 0.013984
-0.013984 -0.00566918 0.0103935
-0.0111494 -0.00774788 0.00396842
-0.0179524 -0.00642507 0.0147399
-0.0113384 -0.0111494 -0.000188973
-0.0117163 -0.0145509 -0.00283459
-0.00472431 -0.00793685 -0.00566918
0.00151178 -0.0041574 -0.00793685
0.00396842 -0.00548021 -0.0153068
-0.000188973 -0.0109604 -0.020409
-0.0062361 -0.0151178 -0.0181414
-0.00850377 -0.013606 -0.0105825
0.00245664 -0.0117163 -0.02759
-0.0111494 0.00396842 0.0179524
-0.00982658 0.00188973 0.0124722
-0.00982658 0.0062361 0.0177634
-0.0113384 0.0126612 0.0285349
-0.0126612 0.0147399 0.034582
-0.0124722 0.0103935 0.0292908
-0.0113384 0.0171965 0.034204
-0.00321253 -0.0156847 -0.0351489
-0.0153068 -0.00831479 -0.00396842
0.00226767 0.00132281 0.0177634
0.0249444 0.0119053 0.00566918
0.0232436 0.00831479 -0.020598
-0.000188973 -0.00661404 -0.0285349
0.0453534 0.0251334 0.0164406
0.0642507 0.0351489 0.00075589
0.062361 0.0315584 -0.0251334
0.0417629 0.0179524 -0.0362827
-0.00566918 -0.0162516 -0.0496998
0.000566918 -0.00151178 0.0430858
-0.0326923 -0.0158737 -0.00680301
-0.00529123 -0.000944863 0.00434637
-0.00283459 0.0164406 0.0221098
0.00472431 0 -0.00396842
0.00869274 -0.00245664 -0.0173855
-0.00907068 -0.0192752 -0.0219208
-0.0132281 -0.0166296 -0.00869274
-0.00850377 -0.00321253 0.00396842
-0.00888171 0.00472431 0.013606
-0.013795 0.0200311 0.0434637
-0.013606 0.0122832 0.0340151
-0.0102045 0.0177634 0.034204
-0.0158737 0.0171965 0.0370386
-0.00812582 0.0200311 0.0357158
-0.00151178 -0.0143619 -0.041574
-0.00245664 -0.0153068 -0.0364717
-0.00907068 -0.020409 -0.0330702
0.0466762 0.0279679 0.0364717
0.0801244 0.0462983 0.00869274
0.0772898 0.0400622 -0.0374166
0.0404401 0.0153068 -0.0565028
-0.0366607 -0.0230547 0.00434637
Vibration 2
-0.00774788 0.00321253 -0.0128501
-0.00774788 0.0020787 -0.0124722
-0.0062361 0.00132281 -0.00907068
-0.00736993 0.000944863 -0.00831479
-0.00699199 0.00226767 -0.0126612
-0.00793685 0.00302356 -0.0147399
-0.00264562 0.00491329 -0.0122832
-0.00774788 0.00340151 -0.0158737
-0.00774788 0.00340151 -0.0164406
-0.00812582 0.00340151 -0.00642507
-0.0151178 0.000944863 -0.00585815
-0.0128501 -0.000377945 0.00453534
-0.00264562 0.00075589 0.0147399
0.00302356 0.0041574 0.0130391
0.000188973 0.00548021 0.00226767
0.000188973 -0.00170075 0.0257003
-0.00661404 0.00585815 -0.00302356
-0.00170075 -0.0168186 -0.0517785
-0.0020787 -0.00812582 -0.0434637
-0.00604712 0.0239995 0.0143619
-0.0102045 0.0462983 0.0625499
-0.00982658 0.0366607 0.0531013
-0.00642507 0.0340151 0.0239995
0.0158737 -0.00434637 0.0425188
0.00925966 0.000566918 -0.00472431
0.00510226 0.00529123 -0.00812582
0.00491329 -0.00850377 -0.00661404
0.0096376 -0.0222988 -0.00283459
0.0128501 -0.0188973 -0.00151178
0.00170075 -0.00944863 -0.00812582
0.00359048 -0.0249444 -0.00566918
0.00869274 -0.0393063 -0.00188973
0.0115273 -0.0381725 -0.000377945
0.0187083 -0.0313695 0.00132281
0.0075589 0.0173855 -0.00888171
0.0171965 0.00869274 -0.00075589
-0.0096376 0.00113384 -0.0132281
0.00226767 0.0222988 -0.0103935
-0.0224877 0 -0.0132281
-0.0181414 -0.00264562 0.00566918
0.00982658 0.00566918 0.0198421
0.00491329 0.00831479 0.00075589
0.00283459 -0.0428968 -0.096565
0.00132281 -0.0264562 -0.08277
-0.013795 0.0714316 0.107714
-0.0126612 0.0542351 0.0901399
-0.00283459 0.0328812 0.0171965
-0.0143619 0.0302356 0.0340151
-0.00245664 0.0466762 0.0268341
0.0196532 -0.00888171 0.0532903
0.00869274 -0.0115273 0.0495108
0.0304246 0.00510226 0.0372276
-0.00188973 0.00151178 -0.0113384
0.00132281 -0.0255113 -0.00680301
0.0100155 -0.0514005 0.000188973
0.0153068 -0.0495108 0.00283459
0.0158737 0.0183303 -0.0041574
Vibration 3
-0.00604712 0.00869274 -0.0175745
-0.00604712 0.00831479 -0.0151178
-0.00661404 0.00850377 -0.0141729
-0.00529123 0.00869274 -0.0173855
-0.00548021 0.00888171 -0.0183303
-0.00548021 0.00888171 -0.0200311
-0.00661404 0.0100155 -0.0105825
-0.00548021 0.00869274 -0.0211649
-0.00548021 0.00869274 -0.0213539
-0.00548021 0.00850377 -0.0122832
-0.0107714 0.00699199 -0.0119053
-0.00604712 0.00434637 -0.00188973
0.00434637 0.00340151 0.00812582
0.00774788 0.0062361 0.0062361
0.00264562 0.00907068 -0.0041574
0.0100155 -0.000377945 0.0190862
-0.00661404 0.00604712 -0.00453534
-0.0158737 0.0257003 0.0440306
-0.0156847 0.0230547 0.0587705
-0.00736993 0 0.0234326
0.00113384 -0.020598 -0.0270231
0.000944863 -0.0168186 -0.0402512
-0.00699199 -0.00226767 0.0408181
0.0283459 -0.00680301 0.0377945
-0.00680301 0.0107714 -0.000944863
-0.000377945 0.00113384 0.00188973
0.00850377 -0.0153068 -0.000377945
0.00774788 -0.0145509 -0.00434637
-0.0020787 0.00396842 -0.00491329
0.0171965 -0.0313695 0.00151178
0.0251334 -0.0464873 -0.000377945
0.0247554 -0.0464873 -0.0041574
0.0160627 -0.0306136 -0.00642507
-0.00661404 0.0134171 -0.0075589
-0.000566918 0.00264562 0.0130391
-0.013795 0.0215429 0.0062361
-0.00529123 0.00869274 -0.0130391
-0.00396842 0.00888171 0.00774788
-0.0181414 0.00736993 -0.0190862
-0.00982658 0.00264562 -0.00113384
0.0145509 0.0062361 0.0128501
0.00548021 0.0113384 -0.00585815
-0.0234326 0.0444086 0.0714316
-0.0222988 0.0394953 0.0988327
0.00793685 -0.0391173 -0.0555579
0.00699199 -0.0326923 -0.0782347
-0.0132281 0.00151178 0.0563138
-0.0141729 0.00359048 0.0370386
0.00661404 -0.0134171 0.0447865
0.0349599 -0.0122832 0.0489439
0.0187083 -0.0166296 0.0462983
0.0447865 0.00377945 0.0317474
0.0175745 -0.0319364 0.00472431
0.0317474 -0.0582036 0.00132281
0.0309915 -0.0583925 -0.00548021
0.0156847 -0.0306136 -0.0096376
-0.0171965 0.0266451 0.00869274
Vibration 4
-0.0147399 0.00812582 -0.00982658
-0.0149288 0.00302356 -0.0102045
-0.0102045 0.000188973 0.000188973
-0.00566918 0.00283459 0.00699199
-0.00566918 0.00793685 0.00529123
-0.0103935 0.0103935 -0.000566918
0 0.0109604 0.0062361
-0.0100155 0.0149288 0.0020787
-0.0096376 0.0177634 0.00434637
-0.013606 0.00718096 -0.0168186
-0.0185193 0.0179524 -0.0292908
-0.00264562 0.00888171 -0.0258892
0.0188973 -0.0115273 -0.00925966
0.0179524 -0.0188973 -0.00226767
0.000944863 -0.00869274 -0.00661404
0.0393063 -0.0222988 -0.00264562
-0.0100155 -0.00925966 0.00245664
-0.0187083 -0.0190862 -0.0041574
-0.0183303 -0.0321253 -0.00604712
-0.00925966 -0.0349599 -0.00075589
-0.000377945 -0.0239995 0.00831479
-0.000944863 -0.0111494 0.0100155
-0.00869274 -0.0502667 -0.00510226
0.0795575 -0.0555579 0.0319364
0.00510226 0.00831479 0.00359048
0.00113384 0.0153068 0.0020787
-0.00264562 0.0200311 0.00321253
-0.000944863 0.0156847 0.00548021
0.0041574 0.00680301 0.00585815
-0.00736993 0.0294797 0.00226767
-0.0105825 0.034204 0.00321253
-0.00925966 0.0302356 0.00548021
-0.00434637 0.020976 0.00661404
0.00736993 -0.000188973 0.00736993
0.0020787 0.0194642 -0.00226767
0.0107714 0.00548021 0.00132281
-0.0185193 0.000944863 -0.0183303
0.00132281 0.0200311 -0.00226767
-0.0332592 0.0326923 -0.0400622
-0.00491329 0.0162516 -0.034204
0.0304246 -0.0323143 0.00699199
0.000377945 -0.0145509 -0.000944863
-0.0257003 -0.0170075 -0.00812582
-0.0251334 -0.0400622 -0.0120942
0.00699199 -0.0255113 0.013795
0.00585815 -0.00283459 0.0170075
-0.0166296 -0.0563138 -0.00944863
0.0020787 -0.0559359 -0.00396842
-0.0107714 -0.0514005 -0.00604712
0.100533 -0.0653845 0.0417629
0.0542351 -0.0810692 0.0597153
0.11395 -0.0447865 0.0192752
-0.00869274 0.0330702 0.000566918
-0.0143619 0.041196 0.00245664
-0.0117163 0.0340151 0.0062361
-0.00321253 0.0177634 0.00831479
0.0109604 0.00699199 0
Vibration 5
0.0109604 -0.00359048 -0.0202201
0.0107714 -0.00472431 -0.0251334
0.0120942 -0.00510226 -0.0177634
0.013606 -0.00359048 -0.0115273
0.013795 -0.00264562 -0.00925966
0.0128501 -0.00283459 -0.0143619
0.00566918 -0.00510226 0.00264562
0.0130391 -0.00151178 -0.013795
0.0132281 0.000566918 -0.0132281
0.00661404 -0.00075589 -0.013795
-0.0115273 -0.00226767 -0.0168186
-0.0198421 0.00226767 -0.00793685
-0.00869274 0.00888171 0.00434637
0.0102045 0.0103935 0.00812582
0.0175745 0.00548021 -0.00113384
-0.0192752 0.0134171 0.0119053
0.0122832 -0.0100155 -0.00944863
0.00510226 -0.0255113 -0.0285349
0.00529123 -0.0302356 -0.0164406
0.0134171 -0.0187083 0.0156847
0.020976 -0.00359048 0.034204
0.020598 0.000377945 0.0211649
0.013606 -0.0232436 0.0308025
-0.0062361 0.0194642 0.0285349
-0.0187083 0.00453534 0.00340151
-0.00661404 -0.0192752 0.00925966
-0.00132281 -0.00982658 0.00585815
-0.0119053 0.0211649 -0.000944863
-0.0230547 0.0313695 -0.00264562
0.00982658 -0.0255113 0.00907068
0.00925966 -0.00736993 0.00491329
-0.00188973 0.0258892 -0.0020787
-0.0122832 0.0400622 -0.00529123
-0.0340151 0.0566918 -0.00718096
-0.0119053 -0.0430858 0.0196532
-0.0393063 0.00472431 0.00585815
0.00925966 -0.00548021 -0.0326923
-0.00302356 -0.0464873 0.0153068
-0.0198421 -0.00736993 -0.0260782
-0.034582 0.00113384 -0.0102045
0.0188973 0.0153068 0.0177634
0.0325033 0.00718096 0.00132281
-0.000566918 -0.034771 -0.0527234
-0.000944863 -0.0427078 -0.0319364
0.027401 0.00510226 0.0589595
0.0266451 0.0113384 0.034582
0.00680301 -0.0289128 0.0257003
0.0109604 -0.0308025 0.0432747
0.0236216 -0.013606 0.0357158
-0.0170075 0.0213539 0.0336371
-0.00377945 0.0241885 0.041385
0.00982658 0.0173855 0.0222988
0.0181414 -0.0510226 0.0147399
0.0171965 -0.0190862 0.00718096
-0.00264562 0.0408181 -0.00529123
-0.020787 0.0655735 -0.0107714
-0.0370386 -0.0096376 0.0103935
Vibration 6
0.00604712 -0.00812582 0.00075589
0.00566918 -0.00925966 -0.0156847
0.00510226 -0.00869274 -0.0151178
0.00472431 -0.00907068 -0.0100155
0.0041574 -0.00831479 0.00321253
0.00510226 -0.00812582 0.0170075
0.00529123 -0.00907068 -0.00075589
0.0041574 -0.00925966 0.0455424
0.00283459 -0.0109604 0.0672742
0.00151178 -0.00585815 -0.00113384
-0.0438416 0.0190862 -0.0387394
-0.0555579 0.0257003 -0.0461093
-0.0185193 0.00661404 -0.013984
0.0294797 -0.0190862 0.0251334
0.0387394 -0.0243775 0.0309915
-0.0372276 0.0170075 -0.02759
0.00491329 -0.00396842 -0.0147399
0.00736993 0.00718096 0.00245664
0.00718096 0.0200311 0.0185193
0.00377945 0.020787 0.0156847
0.000944863 0.0062361 -0.00812582
0.00132281 -0.00585815 -0.0228657
0.00340151 0.0381725 0.0396842
0.00340151 -0.00359048 0.0113384
0.0075589 -0.0102045 -0.00510226
0.00321253 -0.00377945 -0.00736993
-0.00151178 0.000944863 -0.00566918
0.000188973 -0.00283459 -0.00283459
0.00585815 -0.0102045 -0.0020787
-0.00680301 0.00925966 -0.00718096
-0.0105825 0.0134171 -0.00548021
-0.00907068 0.0096376 -0.00264562
-0.00377945 0.00151178 -0.00113384
0.00850377 -0.0151178 0
0.00453534 0.00132281 -0.0170075
0.0128501 -0.0149288 -0.00831479
0.00585815 -0.00907068 -0.0281569
0.000566918 -0.0156847 0.00982658
-0.0712427 0.0336371 -0.0616051
-0.0924076 0.0451645 -0.0754001
0.0587705 -0.034204 0.0504557
0.0748331 -0.0427078 0.0593374
0.00925966 0.00718096 0.00453534
0.00944863 0.0300466 0.034393
-0.00170075 0.00510226 -0.0132281
-0.00113384 -0.0160627 -0.0393063
0.00736993 0.0457314 0.0519675
-0.0168186 0.0457314 0.0417629
0.0190862 0.0377945 0.0455424
-0.0217318 0.0103935 -0.00774788
0.00566918 0.00812582 0.0740773
0.0512116 -0.0421409 -0.00774788
-0.00793685 0.0124722 -0.00944863
-0.0145509 0.0196532 -0.00680301
-0.0119053 0.0128501 -0.00132281
-0.00264562 -0.00113384 0.00132281
0.0102045 -0.0109604 -0.00642507
Vibration 7
-0.00113384 0.0128501 0.0291018
-0.00132281 0.0130391 0.0251334
0 0.0124722 0.013606
0.000188973 0.0122832 -0.00359048
0 0.0111494 0.00151178
-0.00075589 0.0124722 0.027779
-0.00377945 0.00604712 -0.0171965
-0.00132281 0.0145509 0.0540462
-0.0020787 0.0170075 0.0748331
0.00264562 0.0107714 0.0238105
0.00869274 0.0215429 0.013984
0.013795 0.0188973 -0.000377945
0.0122832 0.00491329 -0.00472431
0.0075589 -0.00699199 0.00566918
0.00283459 -0.00340151 0.0202201
0.0164406 0.00434637 -0.020976
0 0.0062361 0.0166296
-0.00661404 -0.00736993 0.00075589
-0.0062361 -0.0213539 -0.00566918
0.00170075 -0.020598 0.00548021
0.00888171 -0.00396842 0.027401
0.00831479 0.00907068 0.0321253
0.0020787 -0.0389284 -0.00661404
0.00642507 -0.00566918 -0.0355268
-0.0111494 0.00982658 -0.0198421
-0.00888171 0.00680301 -0.0198421
-0.00529123 -0.00472431 -0.0202201
-0.00566918 -0.00340151 -0.0211649
-0.0128501 0.0170075 -0.020787
0.00226767 -0.027401 -0.0196532
0.0102045 -0.0500777 -0.0194642
0.0102045 -0.0500777 -0.0202201
0.0020787 -0.0258892 -0.0213539
-0.0196532 0.0359048 -0.020787
-0.00793685 0.0100155 -0.0245664
-0.0166296 0.00642507 -0.020976
-0.00226767 0.0122832 0.0300466
-0.0149288 -0.0162516 0.0175745
0.00944863 0.0328812 0.0173855
0.0183303 0.027401 -0.00812582
0.00736993 -0.0187083 0.00302356
-0.00132281 -0.0124722 0.0281569
-0.0119053 -0.00850377 -0.00736993
-0.0122832 -0.0334482 -0.020409
0.0153068 -0.00188973 0.0389284
0.0143619 0.020598 0.0462983
-0.00548021 -0.048377 -0.0187083
0.0183303 -0.0487549 -0.00264562
-0.00548021 -0.0349599 -0.00907068
0.0062361 -0.000188973 -0.0531013
0.0096376 -0.00170075 -0.0328812
-0.00321253 -0.0215429 -0.0323143
0.00283459 -0.0285349 -0.0187083
0.0164406 -0.0682191 -0.0185193
0.0162516 -0.0684081 -0.0198421
0.00188973 -0.0255113 -0.0219208
-0.0215429 0.00736993 -0.0141729
Vibration 8
-0.00888171 -0.00113384 -0.0168186
-0.00831479 -0.00604712 -0.0444086
-0.00302356 -0.0096376 -0.0451645
0.0020787 -0.0062361 -0.0326923
0.00132281 -0.000188973 -0.0075589
-0.00340151 0.00283459 0.00812582
0.00491329 0.00283459 0.00132281
-0.00359048 0.0147399 0.048377
-0.00359048 0.0258892 0.0793685
-0.00793685 -0.00132281 -0.0111494
0.0239995 -0.0219208 0.0175745
0.034393 -0.027779 0.0266451
0.00869274 -0.0128501 0.00472431
-0.0268341 0.00831479 -0.0264562
-0.0338261 0.0124722 -0.0334482
0.0247554 -0.0221098 0.0190862
-0.00283459 -0.013795 -0.0438416
-0.00850377 -0.013606 -0.0360938
-0.00888171 -0.00453534 -0.00472431
-0.00359048 0.00340151 0.0170075
0.0020787 -0.00359048 -0.00359048
0.00226767 -0.0120942 -0.0340151
-0.00377945 0.020787 0.0663294
-0.00982658 -0.00245664 -0.0134171
0.00548021 0.00226767 0.00321253
0.00434637 0.00075589 0.0020787
0.00283459 0.00132281 0.00283459
0.0020787 0.00396842 0.00453534
0.00434637 0.00283459 0.00491329
0.000377945 0.0041574 0.0020787
-0.00302356 0.0103935 0.00302356
-0.00377945 0.013606 0.00453534
-0.00132281 0.0102045 0.00529123
0.00472431 0.00340151 0.00661404
0.00529123 0.00548021 -0.00264562
0.00548021 0.00453534 0.00491329
-0.0111494 -0.00774788 -0.0610381
-0.000944863 -0.0128501 0.0281569
0.0419519 -0.0334482 0.0319364
0.0616051 -0.0434637 0.0496998
-0.0474321 0.020787 -0.0438416
-0.0593374 0.0258892 -0.0538572
-0.0130391 -0.0190862 -0.0512116
-0.0132281 -0.00245664 0.00491329
0.00642507 -0.000566918 0.00718096
0.0062361 -0.0160627 -0.0470542
-0.00680301 0.0258892 0.0812582
-0.0340151 0.0245664 0.0799354
0.0291018 0.0262672 0.0797464
0.0102045 -0.0141729 0.00396842
-0.0109604 -0.0115273 -0.0670853
-0.0502667 0.0308025 0.00283459
0.000944863 0.00226767 0.00113384
-0.00491329 0.0126612 0.00226767
-0.00661404 0.0188973 0.00510226
-0.00188973 0.0130391 0.00661404
0.00113384 0.0107714 0.00774788
Vibration 9
0.0041574 0.00642507 -0.0202201
0.00321253 0.0145509 -0.0300466
-0.00359048 0.0187083 -0.0194642
-0.0100155 0.0147399 -0.0119053
-0.0111494 0.00680301 -0.00944863
-0.00396842 0.00226767 -0.0122832
-0.0166296 0.0062361 -0.00075589
-0.00529123 -0.0102045 -0.00453534
-0.0075589 -0.0228657 0.00170075
0.0162516 0 -0.00736993
0.00170075 0.00340151 -0.0145509
0.0096376 -0.00113384 0
0.0315584 -0.00680301 0.0198421
0.0538572 -0.013984 0.0332592
0.0459203 -0.0096376 0.0192752
0.0313695 -0.00774788 0.0298577
-0.00396842 0.0151178 -0.00774788
-0.0183303 0.00699199 -0.00264562
-0.0183303 -0.0102045 0.00359048
-0.00321253 -0.0183303 0.00529123
0.0115273 -0.0075589 0.00604712
0.0103935 0.00944863 -0.000188973
-0.00245664 -0.0410071 0.00774788
-0.0444086 0.0462983 -0.0379835
-0.00982658 0.00359048 0.0041574
-0.00869274 0.00585815 0.00510226
-0.00661404 0.00396842 0.0041574
-0.00245664 -0.0103935 0.00226767
-0.00151178 -0.0181414 0.00132281
-0.0100155 0.0202201 0.00472431
-0.00812582 0.0200311 0.00340151
-0.00283459 0.00264562 0.00170075
-0.000188973 -0.0128501 0.00113384
0.00566918 -0.041385 -0.000944863
-0.00812582 0.0102045 0.00907068
-0.00869274 0.013984 0.0102045
0.00831479 0.0171965 -0.0423299
-0.00982658 0.0175745 0.00075589
-0.0177634 0.0102045 -0.0317474
-0.00321253 0.00132281 -0.00566918
0.0780457 -0.0232436 0.0548021
0.0625499 -0.013795 0.0279679
-0.0304246 0.0134171 -0.00359048
-0.0300466 -0.0170075 0.0062361
0.0238105 -0.0126612 0.0105825
0.0213539 0.0173855 0.000566918
-0.0168186 -0.0540462 -0.00434637
0.0100155 -0.055369 0.0202201
0.000944863 -0.0328812 0.0100155
-0.0791795 0.0648176 -0.0614161
0.000188973 0.0908958 -0.0861715
-0.108848 0.0221098 -0.013984
-0.013795 0.0332592 0.00566918
-0.0103935 0.0334482 0.00359048
-0.000944863 0.00132281 0.000566918
0.00377945 -0.0257003 0
-0.0119053 0.0232436 0.0100155
Vibration 10
-0.0183303 -0.000566918 0.0162516
-0.0177634 -0.0117163 0.0221098
-0.00850377 -0.0179524 0.00472431
0.000188973 -0.0128501 0.000377945
0.000944863 -0.00151178 0.00151178
-0.00888171 0.00377945 0.000566918
0.0145509 0.00510226 0.000377945
-0.00736993 0.0122832 -0.0221098
-0.00529123 0.0192752 -0.0410071
-0.0181414 -0.00132281 0.0168186
-0.0262672 0.0132281 -0.00075589
-0.0100155 0.00434637 -0.000944863
0.0130391 -0.0200311 0.0162516
0.0213539 -0.0351489 0.0334482
0.00453534 -0.0241885 0.0330702
0.0325033 -0.0300466 0.0162516
-0.00831479 -0.020976 -0.0105825
0.000188973 -0.0179524 -0.0170075
0 -0.00302356 -0.0130391
-0.00982658 0.00793685 -0.00302356
-0.0185193 -0.00226767 -0.0107714
-0.0177634 -0.0171965 -0.0151178
-0.0105825 0.034582 0.0192752
-0.027779 -0.0096376 -0.0453534
0.0171965 0.00434637 -0.000944863
0.0132281 0.0062361 -0.00340151
0.0102045 0.00359048 -0.00113384
0.0062361 0.0175745 0.00321253
0.00699199 0.0272121 0.00472431
0.0122832 -0.0153068 -0.00264562
0.00888171 -0.0168186 0.000188973
0.00359048 0.0020787 0.00434637
0.00226767 0.0194642 0.00566918
-0.00188973 0.0585815 0.0102045
0.0143619 0.0102045 -0.00529123
0.0224877 -0.0041574 -0.00680301
-0.0255113 -0.0160627 0.0362827
0.0145509 0.0198421 -0.0185193
-0.0447865 0.0323143 -0.0141729
-0.0156847 0.0156847 -0.0143619
0.041574 -0.0559359 0.0489439
0.00925966 -0.034771 0.0447865
0.00793685 -0.0255113 -0.0230547
0.0075589 0.00113384 -0.0151178
-0.0260782 0.00245664 -0.0102045
-0.0243775 -0.0243775 -0.0194642
-0.000377945 0.0391173 0.0175745
-0.0355268 0.0357158 0.0338261
0.00321253 0.0523454 0.0266451
-0.0376055 0.00188973 -0.0723765
-0.00321253 0.0132281 -0.0831479
-0.0842818 -0.0294797 -0.0243775
0.0158737 -0.0285349 -0.00548021
0.0102045 -0.0325033 -0.00075589
0.000188973 0.00245664 0.00642507
-0.00170075 0.0334482 0.00869274
0.0289128 -0.0124722 -0.0120942
Vibration 11
0.000944863 0.000188973 0.00434637
0.000944863 0.000944863 0.00529123
0.000377945 0.00132281 0.00170075
0 0.000944863 0.000188973
-0.000188973 0.000188973 0.00075589
0.000566918 -0.000188973 0.00151178
-0.000944863 -0.000377945 -0.000188973
0.000377945 -0.00132281 -0.00151178
0.000377945 -0.00245664 -0.00396842
0.000944863 0.000377945 0.0041574
0.00302356 0 0.00510226
0.00132281 0.00113384 0.00245664
-0.00245664 0.00226767 -0.000944863
-0.00396842 0.00226767 -0.00132281
-0.00226767 0.00132281 0.00113384
-0.00510226 0.00396842 -0.00472431
0.000566918 0.000944863 -0.00113384
0.000566918 0.00302356 0.00302356
0.000566918 0.00132281 -0.000566918
0.00075589 -0.00226767 -0.00793685
0.00075589 -0.00396842 -0.0105825
0.000566918 -0.00283459 -0.00812582
0.00075589 0.00188973 0.00888171
0.00566918 -0.00340151 0.00510226
-0.00075589 -0.000566918 -0.000566918
-0.00075589 0.000188973 -0.000377945
-0.00075589 0.00075589 -0.000566918
-0.000188973 -0.00132281 -0.00075589
0 -0.00226767 -0.000944863
-0.00113384 0.00283459 -0.000377945
-0.00075589 0.00226767 -0.000566918
0 -0.000377945 -0.00075589
0.000377945 -0.00226767 -0.000944863
0.000566918 -0.00434637 -0.00113384
-0.00075589 -0.000188973 -0.000188973
-0.000566918 -0.000566918 -0.000566918
0.00151178 0.00113384 0.00774788
-0.000188973 0.00132281 -0.00264562
0.00604712 -0.000944863 0.00774788
0.00264562 0.000944863 0.00283459
-0.00680301 0.00321253 -0.00377945
-0.00377945 0.00151178 0.000566918
0.000566918 0.0062361 0.00907068
0.00075589 0.00377945 0.00377945
0.000377945 -0.00529123 -0.013984
0.00075589 -0.00434637 -0.0113384
-0.000188973 -0.212972 -0.465628
-0.00831479 -0.309537 0.462605
0.0105825 0.543863 0.0808803
0.00510226 -0.00283459 0.00377945
0.00245664 -0.00548021 0.0171965
0.0168186 -0.00699199 0.00075589
-0.00170075 0.00472431 -0.000377945
-0.00113384 0.00396842 -0.000566918
0.000377945 -0.00113384 -0.000944863
0.000944863 -0.00396842 -0.00113384
-0.000188973 -0.00075589 -0.000944863
Vibration 12
0.00396842 -0.0109604 -0.0376055
0.00396842 -0.00718096 -0.0419519
-0.00170075 -0.00377945 0.00812582
-0.0041574 -0.00472431 0.0400622
-0.00396842 -0.00661404 0.0249444
0.000566918 -0.0105825 -0.00170075
0.00188973 -0.00472431 0.0217318
-0.000377945 -0.0160627 0.0130391
-0.0020787 -0.0241885 0.0257003
0.00245664 -0.0107714 -0.0434637
-0.00774788 -0.0222988 -0.0340151
-0.00869274 -0.0226767 -0.0120942
0 -0.0103935 -0.00132281
0.00434637 0.00510226 -0.0153068
0.00604712 0.00245664 -0.0357158
0.00434637 -0.0156847 0.0325033
-0.0020787 0.0041574 0.0202201
0.000944863 0.00907068 0.0243775
0.00113384 0.0105825 0.0149288
-0.00359048 0.00604712 0.000566918
-0.00774788 0.00812582 0.00982658
-0.00736993 0.00699199 0.0198421
-0.00359048 -0.00188973 -0.0298577
-0.0194642 0.0238105 0.0190862
0.0096376 -0.00869274 -0.00170075
0.00151178 0.0170075 -0.000944863
-0.00377945 0.0245664 0.00113384
0.00170075 0.00680301 0.0020787
-0.00245664 0.0224877 0.00283459
-0.00548021 0.0281569 0.000566918
0.00321253 -0.000566918 0.00170075
0.0132281 -0.0321253 0.00302356
0.0113384 -0.0251334 0.00302356
-0.0185193 0.0733214 0.00736993
0.00472431 0.0279679 -0.0145509
0.0255113 -0.0447865 -0.0253223
0.00869274 -0.0041574 -0.0778567
0.00302356 0.0281569 -0.0124722
-0.0145509 -0.0326923 -0.0428968
-0.0141729 -0.0325033 -0.00321253
0.00812582 0.0177634 -0.00869274
0.0122832 0.0117163 -0.0430858
0.00302356 0.0117163 0.0317474
0.00472431 0.013606 0.0158737
-0.0111494 0.00831479 0.00642507
-0.0111494 0.0062361 0.0239995
0 -0.0120942 -0.0566918
0.013984 -0.0147399 -0.0222988
-0.0247554 0.0147399 -0.0359048
-0.0187083 0.0149288 0.0474321
-0.0120942 0.0258892 -0.0257003
-0.0436527 0.0572587 0.0291018
-0.0117163 0.048566 -0.000188973
0.00321253 -0.000377945 0.00170075
0.0219208 -0.0608492 0.00434637
0.0175745 -0.0447865 0.00377945
0.0319364 -0.0593374 -0.0266451
Vibration 13
0.00529123 0.00226767 0.0183303
0.00453534 0.00529123 0.00774788
0.00264562 0.00642507 -0.0100155
0.000566918 0.00548021 -0.0020787
-0.00132281 0.00283459 0.0126612
0.00226767 0.000377945 0.0115273
-0.00699199 0.00075589 0.0173855
0.0020787 -0.0117163 -0.0134171
0.00113384 -0.0262672 -0.0355268
0.00982658 0 0.0228657
0.0179524 0.00132281 0.0238105
0.0122832 0.00491329 0.0111494
-0.000944863 0.00680301 -0.00132281
-0.00075589 0.000377945 0.00510226
0.00434637 -0.0020787 0.0168186
-0.0183303 0.0179524 -0.0268341
0.00359048 -0.00302356 -0.0283459
-0.00264562 -0.0120942 -0.0357158
-0.00283459 -0.0166296 -0.0228657
0.00491329 -0.0103935 -0.00151178
0.0122832 -0.0120942 -0.0145509
0.0117163 -0.00831479 -0.0283459
0.00510226 -0.000944863 0.0440306
0.013984 -0.00925966 0.00075589
-0.00831479 -0.000188973 0.00264562
-0.0100155 0.0128501 0.00566918
-0.0124722 0.0257003 0.00529123
-0.000566918 -0.0143619 0.0020787
-0.00944863 0.00529123 0.00151178
-0.020787 0.0636838 0.00642507
-0.00736993 0.0336371 0.00453534
0.0149288 -0.0387394 0.00188973
0.0164406 -0.0585815 0.000566918
-0.020598 0.0370386 0.00226767
-0.0113384 0.00472431 0.00453534
-0.00472431 -0.0153068 -0.00699199
0.00548021 0.00585815 0.0096376
-0.00132281 0.0228657 -0.0292908
0.027401 0.00075589 0.0326923
0.0162516 0.00718096 0.0100155
-0.00680301 -0.00113384 -0.00113384
0.0020787 -0.00491329 0.0190862
-0.00774788 -0.0149288 -0.0466762
-0.00925966 -0.0222988 -0.0253223
0.0187083 -0.013606 -0.0100155
0.0175745 -0.00793685 -0.034771
-0.00188973 0.0111494 0.0788016
-0.0198421 0.0141729 0.0381725
0.0370386 -0.0202201 0.0540462
0.00377945 -0.000377945 -0.0171965
0.0096376 -0.00718096 0.0495108
0.0495108 -0.0379835 -0.013606
-0.0349599 0.110927 0.00774788
-0.0126612 0.0629279 0.00510226
0.0296687 -0.0754001 0.00113384
0.0304246 -0.104502 -0.00170075
0.00340151 -0.0294797 -0.0107714
Vibration 14
0 -0.000377945 -0.00132281
0.00170075 -0.00944863 0.00944863
0.0107714 -0.0151178 0.0166296
0.0185193 -0.00869274 0.0175745
0.020409 -0.00170075 0.00982658
0.0107714 0.00321253 0.00321253
0.00774788 -0.00982658 0.00548021
0.0145509 0.0462983 0.000188973
0.0234326 0.107525 -0.00453534
-0.0120942 0.00661404 -0.013984
-0.0249444 0.0130391 -0.0239995
-0.0183303 0.00925966 -0.0164406
0.0020787 -0.00075589 0.00113384
-0.000566918 0.0020787 -0.00245664
-0.00718096 0.00566918 -0.0096376
0.0317474 -0.0183303 0.0298577
0.0117163 -0.0160627 0.0122832
0.0228657 -0.00944863 0.0096376
0.0230547 0.00226767 0.00302356
0.0126612 0.00604712 -0.00226767
0.00151178 -0.00226767 -0.00302356
0.00226767 -0.0134171 0.00472431
0.0120942 0.0224877 -0.00869274
-0.00888171 0.00680301 -0.00774788
-0.0181414 -0.00188973 0.000566918
-0.0124722 -0.0154958 0.00283459
-0.0122832 0.00188973 0.000188973
-0.0041574 -0.0251334 -0.00529123
-0.0115273 -0.013984 -0.0062361
-0.0194642 0.0432747 0.00226767
-0.0109604 0.034582 -0.00170075
0.0062361 -0.0224877 -0.00661404
0.00831479 -0.0498888 -0.00850377
-0.0113384 -0.0211649 -0.0117163
-0.0187083 -0.0472432 -0.00377945
-0.0383614 0.000944863 0.00491329
-0.00491329 -0.0130391 0.0102045
-0.00907068 -0.0912738 0.0449755
-0.0379835 0.0198421 -0.0349599
-0.0255113 0.0120942 -0.020976
0.00642507 -0.00113384 0.00377945
-0.00548021 0.00604712 -0.0096376
0.0313695 -0.0128501 0.0122832
0.0315584 0.00793685 0.00245664
-0.00793685 0.000188973 -0.00907068
-0.00529123 -0.0185193 0.00472431
0.0241885 0.0258892 -0.0149288
0.00491329 0.0241885 -0.0062361
0.00642507 0.0319364 -0.0096376
0.0151178 -0.00812582 0.0151178
-0.0100155 -0.00396842 -0.0735103
-0.0574477 0.048377 0.0115273
-0.0298577 0.0791795 0.00566918
-0.0164406 0.068975 -0.000566918
0.0166296 -0.041574 -0.00907068
0.0190862 -0.0859825 -0.0126612
-0.0517785 0.00472431 0.0228657
Vibration 15
-0.00699199 -0.0062361 -0.00680301
-0.0062361 -0.00925966 0.00075589
-0.00359048 -0.0113384 -0.0190862
-0.000188973 -0.0107714 -0.0546131
0.00075589 -0.00453534 -0.0462983
-0.00226767 -0.00321253 -0.0251334
0.0119053 0.00548021 -0.0302356
-0.00283459 -0.00264562 -0.00075589
-0.00453534 -0.00566918 0.0211649
-0.00434637 -0.00944863 0.00680301
0.000566918 -0.0143619 0.0120942
0.00151178 -0.0149288 0.0109604
-0.00510226 -0.0141729 0.00491329
0 -0.0166296 0.00869274
-0.00170075 -0.0145509 0.00831479
-0.0188973 -0.00585815 -0.0132281
-0.00472431 -0.000377945 0.00888171
-0.00264562 0.00888171 0.0224877
-0.00245664 0.0143619 0.0236216
-0.00585815 0.00907068 0.0096376
-0.00869274 0.0153068 0.0251334
-0.00793685 0.00925966 0.0230547
-0.00566918 -0.00831479 -0.0377945
-0.00642507 -0.020787 -0.0041574
0.0128501 0.0075589 0.00151178
0.0168186 -0.0187083 -0.0041574
0.0160627 -0.020787 -0.00321253
0.0202201 -0.0332592 0.0020787
0.0128501 0.00396842 0.00529123
-0.0020787 0.027779 -0.00529123