[Molden Format]
[FREQ]
-16.5
16.8
26.1
27.7
29.8
33.1
39.3
45.1
48.8
65.9
75.1
88.2
97.9
106.3
113.9
129.4
149.6
152.6
171.2
182.4
201.1
207.6
222.6
252.6
255.1
256.8
279.5
289.4
306.9
336.6
347.1
348.8
360.3
366.0
375.2
406.0
411.9
424.7
434.6
462.0
481.2
489.4
513.5
519.9
537.7
548.0
556.8
568.8
592.3
602.6
610.0
616.5
626.0
635.6
668.0
677.0
681.8
701.3
706.7
719.6
736.2
752.1
775.6
782.0
793.5
826.1
832.3
837.4
854.4
870.4
885.5
886.0
897.9
900.5
943.2
944.7
972.8
994.7
1008.5
1008.6
1011.2
1017.2
1017.8
1032.7
1041.1
1048.5
1070.4
1072.9
1081.7
1094.0
1123.2
1126.9
1134.2
1179.3
1179.6
1181.1
1182.4
1195.8
1203.9
1212.7
1225.4
1263.0
1267.5
1274.3
1275.8
1281.5
1287.0
1294.9
1301.1
1322.6
1328.8
1329.8
1331.1
1345.6
1349.4
1351.6
1352.7
1369.6
1379.5
1390.4
1419.3
1436.1
1459.0
1501.4
1523.4
1523.6
1531.5
1535.3
1568.7
1577.2
1596.6
1605.1
1647.6
1690.0
1693.5
1696.8
1704.1
1706.9
1709.2
1714.0
1764.7
1833.6
1843.6
2304.3
2651.8
2654.4
2668.1
2672.4
2714.8
2735.9
2740.0
2740.3
2744.6
2745.1
2748.8
2749.4
2750.4
2761.5
2761.8
2762.7
2765.2
2766.2
2769.7
2779.2
2779.7
       
[FR-COORD]
C 0.81107 -2.99295 -1.64538
C 3.38847 -2.99295 -1.64538
C 4.74567 -0.637594 -1.64538
N 3.52396 1.55751 -1.53824
C 0.914438 1.69093 -1.27594
C -0.553312 -0.618885 -1.66749
N 0.119998 4.05384 -0.757402
C -3.02356 -0.504935 -2.16109
N -5.17199 -0.397031 -2.92719
C -0.637405 -5.34641 -1.71134
C -0.0442196 -7.20212 -3.51565
C -1.45339 -9.4046 -3.66456
C -3.48447 -9.73927 -1.99253
C -4.10581 -7.92287 -0.18576
C -2.66111 -5.72757 -0.0587705
O -4.70598 -11.9697 -2.34893
C 7.51279 -0.645152 -1.59644
C 8.72694 -1.93092 0.364528
C 11.3465 -1.94887 0.488683
C 12.7677 -0.692207 -1.35285
C 11.543 0.581091 -3.31949
C 8.91913 0.609437 -3.44384
C 15.5772 -0.698065 -1.21566
C -6.94588 -12.3955 -0.930123
C -1.99876 4.77213 0.193508
C -5.24682 3.18173 2.9406
C -5.21734 5.64045 4.25793
C -4.16118 7.74485 3.05739
C -2.62899 7.43059 0.727167
C -6.32964 5.89765 6.62859
C -6.51653 8.29495 7.72652
C -5.60663 10.4113 6.45209
C -4.4178 10.1412 4.1162
O -1.87574 9.19786 -0.502667
O -6.51918 1.36627 3.45574
O -3.82386 2.96895 0.791606
H 4.48715 -4.72809 -1.63461
H -6.8204 -0.276467 -2.03694
H 1.51688 -6.88937 -4.8239
H -1.01686 -10.8612 -5.04632
H -5.69563 -8.17458 1.083
H -3.13713 -4.27248 1.32697
H 7.61012 -2.90054 1.80355
H 12.2893 -2.93493 2.02673
H 12.6489 1.54428 -4.76098
H 7.96047 1.5783 -4.98831
H 16.3076 1.19185 -0.742851
H 16.4312 -1.25629 -3.02621
H 16.3066 -2.00368 0.22431
H -7.56174 -14.2465 -1.64179
H -8.37375 -10.9576 -1.34662
H -6.53165 -12.4964 1.09358
H -7.02487 4.23318 7.63412
H -7.38184 8.51057 9.5828
H -5.80467 12.2861 7.28282
H -3.69612 11.7843 3.0914
H 4.51059 3.23219 -1.45698

[FR-NORM-COORD]
Vibration 1
0.000377945 -0.0096376 -0.00321253
0.000377945 -0.00718096 -0.0162516
-0.00226767 -0.00585815 -0.0103935
-0.00453534 -0.0075589 -0.00472431
-0.00434637 -0.00925966 0.00529123
-0.00434637 -0.0122832 0.0217318
0.000377945 -0.00793685 0.00396842
-0.0141729 -0.0194642 0.068975
-0.0353379 -0.027401 0.126045
0.00510226 -0.0126612 -0.0105825
-0.0075589 0.00548021 -0.0334482
-0.00377945 0.00359048 -0.0408181
0.0126612 -0.0166296 -0.0247554
0.0260782 -0.0355268 -0.00113384
0.0224877 -0.0334482 0.00585815
0.013984 -0.0158737 -0.034393
-0.00226767 -0.00340151 -0.00812582
-0.00472431 -0.00510226 -0.0075589
-0.00491329 -0.0020787 -0.0020787
-0.00264562 0.00245664 0.00264562
-0.000188973 0.00359048 0.00188973
0 0.00075589 -0.00340151
-0.00302356 0.00585815 0.00869274
0.0238105 -0.0304246 -0.0232436
0.0062361 0.00245664 0.00907068
-0.0177634 0.0243775 -0.00113384
-0.0105825 0.0251334 -0.00396842
0.00850377 0.0168186 -0.0020787
0.0175745 0.00529123 0.00548021
-0.0221098 0.0353379 -0.0105825
-0.0141729 0.0381725 -0.0154958
0.00529123 0.0308025 -0.0141729
0.0166296 0.0198421 -0.00699199
0.0323143 0.00075589 0.0075589
-0.0370386 0.0340151 -0.0128501
0.00132281 0.00925966 0.0143619
0.0020787 -0.00604712 -0.0313695
-0.00812582 -0.0289128 0.178957
-0.020598 0.0215429 -0.0453534
-0.0134171 0.0175745 -0.0585815
0.0391173 -0.0515895 0.0117163
0.0330702 -0.048377 0.0247554
-0.00642507 -0.00869274 -0.0113384
-0.00699199 -0.00321253 -0.00151178
0.00151178 0.00699199 0.00548021
0.00188973 0.0020787 -0.00396842
-0.0062361 0.00699199 0.00982658
0.00151178 0.00642507 0.0107714
-0.00453534 0.00718096 0.0105825
0.0198421 -0.0238105 -0.0370386
0.0202201 -0.0270231 0.000566918
0.0376055 -0.0500777 -0.0272121
-0.0374166 0.0410071 -0.0119053
-0.0234326 0.0462983 -0.020787
0.0113384 0.0332592 -0.0185193
0.0315584 0.0141729 -0.00585815
-0.00604712 -0.00642507 -0.00680301
Vibration 2
-0.0102045 -0.0041574 -0.0149288
-0.0102045 -0.00226767 -0.0151178
-0.0117163 -0.00151178 -0.013984
-0.013984 -0.00226767 -0.020598
-0.013606 -0.00359048 -0.0222988
-0.0126612 -0.00529123 -0.0149288
-0.0153068 -0.0020787 -0.0289128
-0.0143619 -0.00831479 -0.00661404
-0.0175745 -0.0113384 0.00132281
-0.00812582 -0.00548021 -0.0128501
-0.0109604 -0.00359048 -0.0158737
-0.00831479 -0.00566918 -0.0126612
-0.00245664 -0.00944863 -0.0062361
0.000188973 -0.0111494 -0.00377945
-0.00264562 -0.00907068 -0.00718096
0.000188973 -0.0115273 -0.00302356
-0.0120942 0.00302356 0.000944863
-0.0217318 0.00472431 0.00812582
-0.0226767 0.0160627 0.0291018
-0.013606 0.0255113 0.0425188
-0.00377945 0.0215429 0.0336371
-0.00283459 0.0102045 0.0128501
-0.0147399 0.0402512 0.0663294
0.00529123 -0.0156847 0.00377945
-0.0120942 -0.0020787 -0.0230547
0.0132281 -0.000188973 0.0062361
0.0296687 -0.000377945 0.00661404
0.0164406 -0.000377945 -0.00548021
-0.0113384 -0.00113384 -0.0234326
0.0593374 -0.000566918 0.020409
0.0750221 -0.00075589 0.0238105
0.0610381 -0.000944863 0.013795
0.0313695 -0.00075589 -0.00132281
-0.0291018 -0.00283459 -0.0364717
0.0177634 0.000566918 0.0194642
-0.00925966 -0.000377945 -0.00925966
-0.00907068 -0.00151178 -0.0149288
-0.013795 -0.0120942 0.00831479
-0.0154958 -0.00075589 -0.020409
-0.0105825 -0.00434637 -0.0147399
0.00434637 -0.013984 0.000944863
-0.000566918 -0.0102045 -0.00529123
-0.0289128 -0.0020787 -0.00188973
-0.0306136 0.0183303 0.0353379
0.00359048 0.0279679 0.0434637
0.00510226 0.00793685 0.00642507
-0.027779 0.0462983 0.061983
0.00283459 0.034393 0.0763449
-0.020409 0.0517785 0.0795575
0.0062361 -0.0164406 0.00529123
0.00151178 -0.0179524 0.00850377
0.0115273 -0.0153068 0.00245664
0.0702978 -0.000188973 0.0285349
0.0980768 -0.000944863 0.034771
0.0735103 -0.00113384 0.0173855
0.0202201 -0.000944863 -0.0096376
-0.0151178 -0.00151178 -0.0219208
Vibration 3
-0.00377945 0.0020787 0.0153068
-0.00377945 0.00377945 0.0228657
-0.00491329 0.00434637 0.0230547
-0.00566918 0.00396842 0.020787
-0.00585815 0.0020787 0.0168186
-0.00453534 0.00170075 0.0134171
-0.0105825 0.00340151 0.00642507
-0.00226767 0.00302356 0.00283459
0.00377945 0.00566918 -0.013606
0.000377945 0 0.00340151
0.0188973 0.00321253 0.00566918
0.0270231 -0.000944863 -0.00661404
0.0158737 -0.00869274 -0.0215429
-0.00359048 -0.0117163 -0.0253223
-0.0111494 -0.00736993 -0.0126612
0.0266451 -0.0130391 -0.0319364
-0.00491329 0.0020787 0.0168186
-0.00075589 0.0143619 0.0222988
-0.000188973 0.0020787 0.00774788
-0.00396842 -0.0222988 -0.0119053
-0.00831479 -0.0311805 -0.0147399
-0.00888171 -0.0188973 -0.000377945
-0.00302356 -0.0394953 -0.0298577
0.0183303 -0.0226767 -0.047999
-0.0122832 0.000944863 0.00434637
0.0115273 0.00491329 0.0315584
0.00680301 0.0149288 0.013795
-0.0115273 0.0120942 -0.00736993
-0.0221098 0.00264562 -0.0128501
0.0202201 0.0260782 0.0188973
0.0143619 0.0328812 0.00302356
-0.00510226 0.0287238 -0.0179524
-0.0181414 0.0183303 -0.0234326
-0.0372276 -0.00340151 -0.0304246
0.027401 0.00113384 0.0565028
-0.00510226 -0.00113384 0.0202201
-0.00264562 0.00453534 0.0266451
-0.00434637 0.00377945 -0.0294797
0.027401 0.00907068 0.0171965
0.0417629 0.00151178 -0.00453534
-0.0122832 -0.0175745 -0.0374166
-0.0258892 -0.0100155 -0.0147399
0.00226767 0.0323143 0.0366607
0.00340151 0.0105825 0.0111494
-0.0115273 -0.048566 -0.0287238
-0.0128501 -0.0268341 -0.00302356
0.0107714 -0.0449755 -0.0292908
-0.0173855 -0.0396842 -0.0364717
-0.00188973 -0.0476211 -0.0377945
0.0304246 -0.0245664 -0.0536682
0.0156847 -0.0279679 -0.0568808
0.00453534 -0.0224877 -0.0451645
0.0353379 0.0294797 0.0351489
0.0253223 0.041385 0.00699199
-0.0100155 0.0336371 -0.0300466
-0.0334482 0.0149288 -0.0396842
-0.00661404 0.00434637 0.0200311
Vibration 4
0.00642507 -0.0132281 0.0107714
0.00642507 -0.0134171 0.00888171
0.00680301 -0.0134171 0.00774788
0.00566918 -0.0134171 0.0109604
0.00661404 -0.013606 0.0117163
0.00642507 -0.0130391 0.0111494
0.00510226 -0.0122832 0.00642507
0.00718096 -0.0119053 0.0075589
0.00944863 -0.0103935 0.00113384
0.00245664 -0.0107714 0.00944863
-0.00283459 -0.0102045 0.00699199
-0.013984 -0.00264562 -0.00075589
-0.0196532 0.00434637 -0.0062361
-0.0117163 0.00188973 -0.000944863
-0.000377945 -0.00604712 0.00718096
-0.0336371 0.013606 -0.0166296
0.00661404 -0.00699199 0.00075589
0.0183303 -0.0398732 -0.0281569
0.0187083 -0.0222988 -0.0306136
0.00793685 0.0279679 -0.00434637
-0.00340151 0.0572587 0.0215429
-0.00340151 0.0394953 0.0239995
0.00793685 0.0510226 -0.00491329
-0.0438416 0.0272121 -0.0289128
0.00491329 -0.0132281 0.00661404
0.013795 -0.00699199 0.0198421
0.00472431 0.00188973 0.00340151
-0.00283459 -0.00188973 -0.0102045
-0.00075589 -0.0115273 -0.00718096
0.00321253 0.0134171 0.00132281
-0.0062361 0.0200311 -0.0145509
-0.0143619 0.0151178 -0.0285349
-0.0126612 0.0041574 -0.0262672
-0.00377945 -0.0168186 -0.0166296
0.0232436 -0.00925966 0.0349599
0.0105825 -0.0147399 0.0181414
0.00604712 -0.013606 0.00680301
0.00642507 -0.0117163 -0.00491329
0.00113384 -0.0151178 0.0105825
-0.0188973 -0.00151178 -0.00340151
-0.0141729 0.00604712 -0.00321253
0.00566918 -0.00774788 0.0109604
0.0270231 -0.0776677 -0.0466762
0.0272121 -0.0472432 -0.0517785
-0.0115273 0.0950532 0.0402512
-0.0113384 0.0629279 0.0436527
-0.00661404 0.0572587 -0.00718096
0.0107714 0.0561249 -0.00529123
0.0194642 0.0583925 -0.00434637
-0.0565028 0.0351489 -0.0389284
-0.0298577 0.0408181 -0.0296687
-0.0540462 0.0156847 -0.027401
0.00944863 0.0173855 0.0122832
-0.00736993 0.0289128 -0.0160627
-0.0221098 0.0200311 -0.0410071
-0.0187083 0.000188973 -0.0370386
0.00585815 -0.0134171 0.0113384
Vibration 5
0.00907068 -0.00982658 0.0153068
0.00925966 -0.00718096 0.0154958
0.00529123 -0.00510226 0.00491329
0.00340151 -0.00604712 -0.00302356
0.00302356 -0.00812582 0.00075589
0.00642507 -0.0115273 0.00982658
0.0020787 -0.00831479 -0.00264562
0.00491329 -0.0164406 0.0149288
0.00188973 -0.0221098 0.0228657
0.0075589 -0.00907068 0.0162516
0.00472431 -0.00907068 0.0154958
-0.00736993 -0.00075589 0.00510226
-0.0168186 0.00793685 -0.00472431
-0.0096376 0.00472431 0.00113384
0.00302356 -0.0041574 0.0119053
-0.0332592 0.0192752 -0.0190862
0.00566918 0.00188973 0.000944863
0.0113384 0.061794 0.0364717
0.0115273 0.0742662 0.034204
0.00548021 0.0260782 -0.00359048
-0.000566918 -0.0351489 -0.0394953
-0.000944863 -0.0472432 -0.0370386
0.00548021 0.041196 -0.00434637
-0.0514005 0.0385504 -0.0417629
0.00188973 -0.00736993 -0.00340151
-0.000377945 -0.00642507 -0.00510226
0.00226767 -0.0075589 -0.00321253
0.00377945 -0.00774788 -0.00226767
0.00245664 -0.0075589 -0.00340151
0.00396842 -0.00812582 -0.00226767
0.00736993 -0.00888171 -0.000377945
0.00888171 -0.00888171 0.00075589
0.00699199 -0.00831479 -0.000377945
0.00226767 -0.00736993 -0.00321253
-0.00396842 -0.00491329 -0.00831479
0.00151178 -0.00699199 -0.00340151
0.0119053 -0.00529123 0.0226767
0.00566918 -0.0196532 0.0298577
0.0113384 -0.0151178 0.0219208
-0.0105825 0.000188973 0.00321253
-0.013795 0.00944863 -0.00340151
0.00812582 -0.00642507 0.0160627
0.0156847 0.0984547 0.0646286
0.0166296 0.122076 0.061794
-0.00548021 -0.0735103 -0.068786
-0.00661404 -0.0942973 -0.0633058
-0.0062361 0.0455424 -0.00264562
0.0103935 0.0476211 -0.00377945
0.0122832 0.0445975 -0.00453534
-0.0668963 0.0493218 -0.0563138
-0.0309915 0.0574477 -0.0472432
-0.0706758 0.0238105 -0.0385504
0.00283459 -0.00812582 -0.00321253
0.00869274 -0.00925966 0.000377945
0.0117163 -0.00925966 0.00226767
0.00831479 -0.00831479 0.000377945
0.00151178 -0.00453534 -0.0120942
Vibration 6
0.00283459 0.00491329 -0.0232436
0.00245664 0.00302356 -0.0304246
0.00340151 0.00245664 -0.0232436
0.00529123 0.00302356 -0.0168186
0.00585815 0.00377945 -0.0111494
0.00377945 0.00548021 -0.0124722
0.00604712 0.00264562 -0.00472431
0.00151178 0.00510226 -0.00132281
-0.00170075 0.00302356 0.0075589
-0.00113384 0.00718096 -0.0198421
-0.0283459 0.0170075 -0.0383614
-0.0338261 0.0198421 -0.0311805
-0.0100155 0.0128501 -0.00377945
0.0168186 0.00396842 0.0145509
0.020598 0.00170075 0.00566918
-0.0175745 0.0160627 0.00170075
0.00359048 -0.00075589 -0.0124722
-0.00944863 0.0151178 0.00604712
-0.0102045 0.0117163 0.020598
0.00170075 -0.00793685 0.0164406
0.0145509 -0.0245664 -0.00226767
0.0151178 -0.020787 -0.0166296
0.000944863 -0.0113384 0.0326923
0.00907068 0.00548021 0.0404401
0.00944863 -0.0041574 0.00907068
0.0289128 -0.0154958 0.0266451
0.00510226 -0.0062361 0.00982658
-0.0102045 -0.00510226 -0.00132281
-0.000188973 -0.0062361 0.00548021
-0.00472431 -0.000188973 0.00472431
-0.0308025 0.00548021 -0.0124722
-0.0470542 0.00510226 -0.0247554
-0.0364717 -0.000188973 -0.0187083
-0.00075589 -0.00548021 0.00548021
0.0508336 -0.0260782 0.0434637
0.0234326 -0.013606 0.0232436
0.00151178 0.00226767 -0.0393063
0.00132281 -0.00529123 0.013984
-0.0457314 0.0222988 -0.0578256
-0.055369 0.0272121 -0.0455424
0.034204 -0.00113384 0.0353379
0.041196 -0.00396842 0.0187083
-0.0190862 0.0300466 0.00869274
-0.0202201 0.0247554 0.0351489
0.0239995 -0.0402512 -0.00548021
0.0247554 -0.0330702 -0.0304246
0.000377945 -0.0111494 0.0334482
0.0113384 -0.0156847 0.0389284
-0.00925966 -0.00925966 0.0396842
-0.00151178 0.00850377 0.0417629
-0.000377945 0.00585815 0.0740773
0.0459203 -0.00491329 0.0325033
0.00793685 -0.000188973 0.013795
-0.0383614 0.0103935 -0.0166296
-0.0680301 0.00925966 -0.0389284
-0.048377 -0.000377945 -0.02759
0.00661404 0.0020787 -0.0130391
Vibration 7
-0.0130391 -0.00774788 -0.013984
-0.0124722 -0.0124722 -0.0156847
-0.00736993 -0.0160627 -0.0153068
-0.00226767 -0.013606 -0.00925966
-0.00151178 -0.00888171 -0.00226767
-0.00699199 -0.0041574 -0.0111494
0.00736993 -0.00944863 0.00982658
-0.00472431 0.0105825 -0.0185193
0.000377945 0.0311805 -0.0294797
-0.013984 -0.00718096 -0.0132281
0.0103935 -0.0241885 0.0117163
0.0196532 -0.0304246 0.0190862
0.0020787 -0.0198421 0.000188973
-0.0260782 -0.000944863 -0.0287238
-0.0336371 0.00453534 -0.034771
0.0168186 -0.0298577 0.0128501
-0.00718096 -0.0149288 -0.0154958
-0.0062361 0.00283459 -0.00472431
-0.00642507 0.0224877 0.00548021
-0.00831479 0.0228657 0.00453534
-0.00944863 -0.00132281 -0.0105825
-0.00907068 -0.020409 -0.020598
-0.00907068 0.0519675 0.0213539
0.00699199 -0.0272121 -0.00188973
0.0130391 -0.00340151 0.0181414
0.00699199 0.00718096 0.0170075
0.00226767 0.0111494 0.0096376
0.0141729 0.00642507 0.0120942
0.0291018 -0.00132281 0.0234326
-0.0162516 0.0198421 0.000377945
-0.0222988 0.0230547 -0.00812582
-0.00888171 0.0183303 -0.00680301
0.00982658 0.00982658 0.00377945
0.0523454 -0.00321253 0.0340151
0.00793685 0.00793685 0.0221098
0.00869274 0.00113384 0.0185193
-0.0154958 -0.0145509 -0.0160627
-0.00491329 0.0398732 -0.0410071
0.0238105 -0.0330702 0.0253223
0.0402512 -0.0436527 0.0396842
-0.041196 0.00888171 -0.0455424
-0.0542351 0.0168186 -0.0544241
-0.00510226 0.00359048 -0.00340151
-0.00548021 0.0387394 0.0153068
-0.0105825 -0.00396842 -0.0132281
-0.0103935 -0.0374166 -0.0306136
-0.0336371 0.0559359 0.0444086
0.00944863 0.0791795 0.0219208
-0.00396842 0.0466762 0.013984
0.0264562 -0.0408181 0.0166296
0.00075589 -0.0425188 -0.0338261
-0.0109604 0.0020787 0.00321253
-0.0258892 0.0234326 -0.000377945
-0.0372276 0.0296687 -0.0158737
-0.0132281 0.020976 -0.013984
0.020787 0.00566918 0.00510226
0.00132281 -0.0156847 -0.00736993
Vibration 8
0.000566918 0.000188973 0.00302356
0.000377945 -0.000188973 0.0041574
0.000566918 -0.000188973 0.0041574
0.000566918 -0.000188973 0.00396842
0.000566918 0 0.00245664
0.000566918 0.000188973 0.0020787
-0.000188973 0.000377945 0.000377945
0.000944863 -0.000566918 0
0.00188973 -0.00188973 -0.00264562
-0.000188973 0.000566918 0.00170075
-0.00491329 0.0041574 -0.00340151
-0.00585815 0.00491329 -0.00472431
-0.00151178 0.00188973 0
0.00302356 -0.00170075 0.00510226
0.00359048 -0.00188973 0.00566918
-0.00264562 0.00264562 -0.00151178
0.000566918 -0.000566918 0.00170075
0.00283459 -0.00170075 0.000188973
0.00264562 -0.00359048 -0.0041574
0.00113384 -0.00510226 -0.00718096
-0.00075589 -0.00302356 -0.00396842
-0.00132281 -0.00113384 0.000377945
0.000377945 0.00491329 0.00699199
0.0041574 -0.00264562 0.00736993
-0.00132281 0.000188973 -0.0020787
-0.00132281 0.000377945 -0.00245664
0 0.000188973 -0.00170075
-0.000944863 0.000188973 -0.00226767
-0.00302356 0.000377945 -0.00377945
0.00245664 -0.000377945 -0.000566918
0.00396842 -0.000566918 0.000188973
0.00302356 -0.000377945 -0.000188973
0.000566918 0 -0.00151178
-0.00585815 0 -0.00585815
-0.0020787 0.00075589 -0.00264562
-0.00170075 0.000377945 -0.00264562
0.000377945 -0.000377945 0.00453534
0.000566918 -0.00264562 -0.00472431
-0.00774788 0.00661404 -0.00642507
-0.0096376 0.00774788 -0.00888171
0.00604712 -0.00377945 0.00831479
0.00680301 -0.0041574 0.00907068
0.0041574 -0.000944863 0.00170075
0.00529123 -0.00283459 -0.00548021
-0.00359048 -0.00170075 -0.00529123
-0.00283459 0 0.0020787
-0.0500777 -0.106392 0.538005
0.0410071 0.523832 -0.131525
0.00850377 -0.375678 -0.341662
0.00340151 -0.0020787 0.00642507
0.000566918 -0.00359048 0.0160627
0.0126612 -0.00585815 0.00548021
0.00302356 -0.000377945 -0.000377945
0.00604712 -0.000944863 0.00113384
0.00434637 -0.000566918 0.000566918
-0.000377945 0.000188973 -0.00188973
0.000566918 -0.000188973 0.00396842
Vibration 9
0.0020787 0.0075589 -0.0109604
0.00226767 0.0126612 -0.0217318
-0.000944863 0.0143619 -0.0283459
-0.00340151 0.0130391 -0.0338261
-0.00321253 0.00944863 -0.0236216
-0.00170075 0.00548021 -0.0075589
-0.0041574 0.00812582 -0.0200311
-0.00736993 -0.00075589 0.0192752
-0.020598 -0.00850377 0.0542351
0.00869274 0.00321253 0.00188973
0.0328812 -0.0179524 0.0313695
0.0366607 -0.020787 0.0393063
0.0130391 -0.00113384 0.0143619
-0.00831479 0.0171965 -0.0115273
-0.00888171 0.0177634 -0.0158737
0.0153068 -0.00377945 0.0221098
-0.00113384 0.0111494 -0.0177634
-0.0164406 -0.00188973 -0.0162516
-0.0173855 -0.0158737 -0.00340151
-0.00226767 -0.0160627 0.00793685
0.0134171 -0.000377945 0.00850377
0.013795 0.0134171 -0.00434637
-0.00302356 -0.034204 0.020976
-0.0317474 0.0368497 -0.0394953
0.000944863 0.0041574 -0.00472431
0.0117163 -0.00661404 0.00548021
0.00359048 -0.0062361 0.00377945
-0.00472431 -0.00359048 0.00113384
-0.00377945 0.00132281 0.00075589
0.00340151 -0.00869274 0.00396842
-0.00661404 -0.00850377 0.00151178
-0.0160627 -0.00604712 -0.00151178
-0.0151178 -0.00359048 -0.00113384
-0.00680301 0.00510226 0.00396842
0.0183303 -0.0115273 0.00566918
0.0109604 -0.00264562 0.00548021
0.00529123 0.0143619 -0.0232436
-0.00359048 -0.00774788 0.0869274
0.048566 -0.0321253 0.0466762
0.0559359 -0.0368497 0.062172
-0.0234326 0.0302356 -0.027779
-0.0234326 0.0291018 -0.0326923
-0.0281569 -0.00170075 -0.0249444
-0.0298577 -0.0268341 -0.00283459
0.0251334 0.000944863 0.0183303
0.0264562 0.0253223 -0.00472431
0.00529123 -0.0447865 0.0506447
0.00302356 -0.0143619 0.0177634
-0.0175745 -0.0582036 0.00680301
-0.0302356 0.0349599 -0.0355268
-0.00453534 0.0468652 -0.0988327
-0.0924076 0.0566918 -0.0262672
0.0107714 -0.0107714 0.00566918
-0.00680301 -0.0100155 0.00151178
-0.0243775 -0.00585815 -0.00377945
-0.0222988 -0.00151178 -0.00302356
-0.00585815 0.0147399 -0.0400622
Vibration 10
-0.0171965 0.0041574 0.0349599
-0.0170075 -0.00188973 0.047999
-0.0122832 -0.00491329 0.0230547
-0.0075589 -0.00151178 -0.00944863
-0.00944863 0.00888171 -0.0134171
-0.0124722 0.00566918 0.0124722
0.00566918 0.0147399 -0.0260782
-0.0143619 -0.0020787 0.0170075
-0.0156847 -0.020598 0.020409
-0.0171965 0.00377945 0.027779
-0.0100155 0.0162516 0.0168186
-0.00377945 0.013984 0.000377945
-0.00472431 -0.00245664 -0.00377945
-0.0122832 -0.0151178 0.0062361
-0.0188973 -0.0109604 0.0217318
0.00377945 -0.00396842 -0.0215429
-0.0124722 -0.00642507 0.0151178
-0.00302356 -0.00907068 0.00718096
-0.00245664 -0.00340151 -0.00264562
-0.0119053 0.00491329 -0.0041574
-0.0215429 0.00680301 0.00283459
-0.0217318 0.000566918 0.0122832
-0.0115273 0.0132281 -0.0141729
0.013795 -0.0323143 -0.0145509
0.00566918 0.0300466 -0.0355268
0.0423299 -0.00472431 -0.020409
0.0266451 -0.00812582 -0.0141729
0.00944863 0.00453534 -0.00812582
0.0260782 0.0260782 -0.00188973
0.0221098 -0.0255113 -0.0145509
-0.00699199 -0.0298577 -0.0107714
-0.0300466 -0.0175745 -0.00680301
-0.0202201 -0.000566918 -0.00396842
0.0563138 0.0406291 0.0370386
0.0874943 -0.0308025 -0.000188973
-0.0111494 0.0389284 -0.0593374
-0.0213539 -0.00434637 0.0695419
-0.0168186 -0.0143619 0.0162516
-0.00869274 0.0285349 0.0211649
0.00170075 0.0239995 -0.00850377
-0.013606 -0.027401 0.0020787
-0.0258892 -0.0200311 0.0287238
0.00434637 -0.0145509 0.00925966
0.00548021 -0.00529123 -0.00869274
-0.0287238 0.0128501 0.00132281
-0.0291018 0.00151178 0.0173855
-0.0153068 0.0154958 -0.0168186
-0.0164406 0.0158737 -0.0175745
-0.00226767 0.0154958 -0.0170075
0.0241885 -0.0309915 -0.0270231
0.00132281 -0.0393063 0.00396842
0.0239995 -0.0457314 -0.0173855
0.0402512 -0.0357158 -0.0188973
-0.0117163 -0.0427078 -0.0115273
-0.0548021 -0.020976 -0.00529123
-0.034771 0.00944863 0.00170075
-0.00491329 -0.00170075 -0.0304246
Vibration 11
-0.0020787 0.00321253 0.00188973
-0.00151178 -0.00604712 0.00321253
0.00699199 -0.0113384 0.00925966
0.0154958 -0.00642507 0.0154958
0.0160627 0.00377945 0.0132281
0.0075589 0.00869274 0.0134171
0.0196532 0.00718096 0.0075589
0.00434637 0.0179524 0.0308025
-0.00604712 0.0300466 0.0604712
-0.0126612 0.0100155 -0.00831479
0.00548021 -0.00377945 0.0115273
0.00245664 -0.00151178 0.00793685
-0.020598 0.013795 -0.0168186
-0.0464873 0.0321253 -0.0442196
-0.041196 0.0283459 -0.0385504
-0.0166296 0.0119053 -0.0156847
0.00736993 -0.0170075 0.00245664
0.013984 -0.013795 0
0.0143619 -0.00321253 -0.0020787
0.00812582 0.00340151 -0.00226767
0.00170075 -0.00699199 -0.00510226
0.00170075 -0.0171965 -0.00264562
0.00812582 0.0243775 0.00075589
0.0302356 -0.0294797 0.0457314
0.0153068 0.00396842 0.00188973
0.00661404 -0.00661404 -0.00925966
0.00396842 -0.00982658 -0.00472431
-0.00925966 -0.00566918 -0.00944863
-0.0126612 0.000188973 -0.0132281
0.0147399 -0.0164406 0.000566918
0.0096376 -0.0173855 0.0020787
-0.00850377 -0.0130391 -0.00359048
-0.0181414 -0.00680301 -0.00925966
-0.041385 0.00151178 -0.0285349
-0.00340151 -0.00510226 -0.0272121
0.0239995 -0.00472431 0.00359048
-0.0075589 -0.0096376 -0.000944863
0.0096376 0.0360938 0.0907068
0.0245664 -0.0175745 0.0309915
0.0190862 -0.0128501 0.0251334
-0.0695419 0.0496998 -0.0697309
-0.0582036 0.0381725 -0.0546131
0.0190862 -0.0177634 0.00113384
0.0194642 0.00113384 -0.00245664
-0.00321253 -0.00548021 -0.00793685
-0.00359048 -0.0238105 -0.00359048
-0.00661404 0.0317474 -0.00604712
0.0143619 0.0238105 0.00377945
0.0162516 0.0357158 0.00680301
0.0578256 -0.0512116 0.0788016
-0.0141729 -0.0676522 0.0659514
0.0814472 0.000188973 0.0366607
0.0268341 -0.0198421 0.00340151
0.0190862 -0.0217318 0.00699199
-0.0149288 -0.013795 -0.00302356
-0.0321253 -0.00283459 -0.0128501
0.0221098 -0.0105825 0.0175745
Vibration 12
-0.0126612 0.00642507 -0.0020787
-0.0126612 -0.00699199 -0.00510226
-0.00132281 -0.0143619 0.0041574
0.0103935 -0.00831479 0.0202201
0.0111494 0.00510226 0.0179524
-0.000377945 0.0128501 0.00869274
0.0192752 0.00944863 0.0158737
0.00075589 0.02759 0.00642507
0.00170075 0.0470542 0.00604712
-0.0164406 0.00888171 -0.00642507
-0.0281569 0.0211649 -0.0228657
-0.0115273 0.00982658 -0.0102045
0.0164406 -0.0130391 0.0187083
0.0215429 -0.020787 0.0281569
0.00472431 -0.00850377 0.0151178
0.0444086 -0.0334482 0.0457314
-0.00113384 -0.0264562 -0.00548021
0.00340151 -0.0253223 -0.00793685
0.00359048 -0.0119053 -0.00604712
-0.00151178 -0.00075589 -0.0020787
-0.00604712 -0.0170075 -0.0100155
-0.00585815 -0.0298577 -0.0115273
-0.0020787 0.034771 0.0130391
-0.0232436 0.0143619 -0.0464873
0.0143619 0.0105825 0.00491329
0.00604712 0.000944863 -0.00888171
0.00510226 -0.00302356 -0.00226767
-0.00793685 0.00226767 -0.00510226
-0.00718096 0.00812582 -0.0062361
0.0149288 -0.0111494 0.00283459
0.00680301 -0.0126612 0.00453534
-0.013795 -0.00699199 -0.000566918
-0.020598 0.00075589 -0.00529123
-0.0283459 0.0096376 -0.0164406
-0.00075589 0.00170075 -0.0232436
0.0151178 0.00699199 -0.00264562
-0.0213539 -0.0126612 -0.013795
0.00321253 0.0538572 0.00888171
-0.0496998 0.0393063 -0.0444086
-0.0188973 0.0179524 -0.0211649
0.0404401 -0.0385504 0.048188
0.00944863 -0.0141729 0.0224877
0.00699199 -0.0315584 -0.00925966
0.00736993 -0.0075589 -0.00548021
-0.00944863 -0.0168186 -0.0124722
-0.0100155 -0.0393063 -0.0149288
-0.0292908 0.0468652 0.00699199
0.0151178 0.0364717 0.020787
0.00661404 0.0523454 0.0241885
-0.020409 0.0162516 -0.0536682
0.0151178 0.0309915 -0.120565
-0.109415 0.0287238 -0.0281569
0.0283459 -0.0154958 0.00491329
0.0153068 -0.0181414 0.00907068
-0.0234326 -0.00793685 -0.000566918
-0.0353379 0.00548021 -0.00793685
0.0196532 -0.0141729 0.02759
Vibration 13
-0.00793685 0.00850377 0.0402512
-0.00793685 0.00491329 0.0355268
-0.00321253 0.00188973 -0.0168186
0.000944863 0.00642507 -0.0502667
0.00396842 0.0111494 -0.0249444
-0.00264562 0.0100155 0.00510226
0.00661404 0.0128501 -0.0253223
-0.000188973 0.00907068 -0.00718096
0.00472431 0.00359048 -0.0219208
-0.00566918 0.00718096 0.047999
0.00396842 0.0215429 0.0355268
0.00699199 0.0226767 0.0107714
0.00075589 0.00774788 0.00075589
-0.00226767 -0.0120942 0.0194642
-0.00661404 -0.00907068 0.041574
-0.00132281 0.0156847 -0.0391173
-0.00359048 -0.00925966 -0.0255113
-0.0117163 -0.0170075 -0.0247554
-0.0128501 -0.0160627 -0.0115273
-0.00472431 -0.0062361 0.00132281
0.00434637 -0.0111494 -0.00736993
0.00472431 -0.0126612 -0.0211649
-0.00604712 0.0134171 0.0298577
0.0190862 -0.0272121 -0.020976
0.0160627 -0.000188973 0.00812582
0.00434637 -0.00188973 0.00566918
-0.00548021 -0.000188973 0.00170075
0.00793685 -0.00377945 0.00850377
-0.00188973 -0.00396842 0.00226767
-0.0232436 0.00283459 -0.00680301
-0.0175745 0.0020787 -0.00453534
0.00925966 -0.00188973 0.00774788
0.020409 -0.00453534 0.013984
-0.0281569 -0.00396842 -0.013795
-0.013606 0.00548021 -0.0113384
0.047999 -0.0221098 0.0381725
-0.0115273 0.00245664 0.0629279
-0.00075589 0.0162516 -0.0338261
0.00869274 0.034393 0.0436527
0.0115273 0.0353379 -0.00113384
-0.00359048 -0.027401 0.0145509
-0.0132281 -0.0200311 0.0502667
-0.0179524 -0.020409 -0.0317474
-0.0200311 -0.0196532 -0.00944863
0.0111494 -0.0107714 -0.00188973
0.0124722 -0.0141729 -0.0266451
-0.0245664 0.0211649 0.02759
0.0166296 0.0100155 0.0417629
-0.0117163 0.0266451 0.0447865
0.0183303 -0.013606 -0.0565028
0.00680301 -0.0243775 0.0309915
0.0455424 -0.0721875 -0.0287238
-0.0400622 0.00529123 -0.0147399
-0.0325033 0.00453534 -0.0117163
0.0190862 -0.00264562 0.0119053
0.0360938 -0.00699199 0.0213539
0.00340151 0.00604712 -0.0839038
Vibration 14
-0.0041574 0.00283459 -0.00982658
-0.00434637 -0.00188973 0.00774788
-0.000188973 -0.00434637 0.0187083
0.00132281 -0.00226767 0.00888171
0.00170075 0.00188973 -0.00907068
-0.0020787 0.00491329 -0.0096376
0.00188973 0.00604712 -0.0173855
-0.0041574 0.00359048 0.0020787
-0.0113384 -0.00113384 0.0192752
-0.0100155 0.00642507 -0.0173855
-0.0147399 0.00661404 -0.0187083
-0.0103935 0.00264562 -0.00907068
-0.00132281 -0.000566918 0.000944863
-0.00566918 0.0062361 -0.00736993
-0.00907068 0.00869274 -0.0154958
0.0160627 -0.0145509 0.0272121
-0.000566918 0.000188973 0.0236216
0.00888171 0.00566918 0.020787
0.0100155 0.00850377 0.00812582
0.00075589 0.00529123 -0.00113384
-0.00944863 0.00812582 0.00680301
-0.0096376 0.00491329 0.0192752
0.00188973 -0.00302356 -0.0249444
-0.00661404 0.0062361 -0.00245664
0.00453534 0.000944863 -0.00925966
0.0153068 -0.00736993 0.00283459
-0.0151178 0.0020787 -0.0141729
0.0287238 -0.00529123 0.0126612
-0.00151178 -0.000377945 -0.0075589
-0.0723765 0.00869274 -0.041196
-0.0508336 0.00340151 -0.0272121
0.0432747 -0.00774788 0.0215429
0.0778567 -0.0119053 0.0398732
-0.0417629 -0.000566918 -0.0317474
0.0531013 -0.0272121 0.0258892
0.0154958 -0.00491329 0.00283459
-0.00736993 -0.00377945 0.0128501
-0.00113384 -0.00869274 0.0398732
-0.020976 0.00831479 -0.0255113
-0.0117163 0.000944863 -0.00774788
-0.0041574 0.0075589 -0.00529123
-0.00925966 0.0111494 -0.0181414
0.0164406 0.0062361 0.0266451
0.0181414 0.0111494 0.00491329
-0.0171965 0.0103935 0.00245664
-0.0177634 0.00453534 0.0239995
0.0117163 -0.00680301 -0.0251334
-0.0156847 0.000377945 -0.034204
0.0102045 -0.0102045 -0.0357158
0.00944863 -0.00831479 0.0215429
-0.00264562 -0.00434637 -0.0529123
-0.0408181 0.0440306 0.00661404
-0.12869 0.0145509 -0.0699199
-0.1011 0.00774788 -0.0510226
0.0820141 -0.0124722 0.0419519
0.134548 -0.0179524 0.0702978
0.00396842 -0.00396842 0.0134171
Vibration 15
-0.00699199 0.00113384 -0.00151178
-0.00642507 -0.00245664 0.0332592
-0.0020787 -0.00472431 0.020598
-0.00264562 -0.00188973 -0.0279679
-0.00151178 0.00075589 -0.0410071
-0.00548021 0.00170075 -0.0279679
0.00113384 0.00359048 -0.0430858
-0.00718096 0.00566918 -0.0171965
-0.0164406 0.0153068 0.00718096
-0.0128501 0.00434637 -0.00699199
-0.0196532 0.00982658 -0.0145509
-0.0160627 0.00699199 -0.0109604
-0.00472431 -0.00170075 0.000944863
-0.00718096 -0.000377945 -0.00151178
-0.0109604 0.00264562 -0.00510226
0.013984 -0.0154958 0.020598
-0.00302356 0.0100155 0.0351489
0.00869274 0.0221098 0.0349599
0.0102045 0.0236216 0.0181414
-0.00113384 0.0128501 0.0020787
-0.013984 0.0270231 0.0190862
-0.013984 0.0243775 0.0353379
0.000944863 -0.0232436 -0.0449755
-0.00529123 -0.0041574 -0.0062361
0.0166296 -0.0109604 0.00340151
0.00604712 -0.00812582 0.00604712
0.0130391 -0.00944863 0.00661404