[Molden Format]
[FREQ]
10.7
22.8
25.4
27.9
31.4
37.9
41.7
44.9
51.3
56.9
67.2
79.1
90.9
92.5
97.9
111.8
121.1
138.1
149.0
163.4
187.5
196.8
199.7
208.4
225.2
244.5
259.5
284.1
302.3
307.4
311.9
325.2
328.8
342.0
355.7
357.7
365.2
380.7
392.8
411.1
427.0
445.9
468.6
485.3
504.1
513.4
516.1
518.7
538.4
551.4
567.7
582.1
594.5
613.9
617.5
620.9
648.4
657.7
663.2
678.4
704.0
711.4
733.8
760.6
787.0
798.5
810.4
832.5
840.1
855.6
883.8
884.8
902.3
904.2
937.7
967.2
968.0
995.5
1004.0
1009.1
1009.4
1017.3
1017.7
1033.0
1044.8
1063.9
1068.3
1077.6
1080.4
1086.1
1128.7
1144.9
1178.2
1179.2
1184.0
1192.7
1206.6
1211.5
1230.3
1245.1
1256.9
1260.6
1267.3
1269.7
1274.7
1276.4
1283.3
1288.5
1294.7
1299.9
1307.9
1325.3
1340.1
1341.9
1345.9
1352.4
1353.6
1370.5
1385.7
1391.7
1397.7
1410.5
1420.6
1435.2
1468.9
1487.5
1518.2
1528.2
1536.1
1577.7
1592.8
1593.0
1686.0
1693.4
1696.1
1703.5
1706.9
1707.3
1713.1
1761.5
1808.4
1880.5
2270.0
2476.2
2644.3
2646.4
2670.3
2679.8
2738.1
2739.0
2741.6
2741.9
2745.9
2750.7
2753.2
2753.4
2756.0
2759.1
2761.9
2764.2
2765.5
2767.0
2774.6
2784.1
2791.8
       
[FR-COORD]
C -2.3478 -4.2037 0.537816
C 0.451645 -4.2037 0.537816
C 1.28974 -1.79033 0.537816
N -0.523265 2.32852 0.53706
C -0.975855 -0.0542351 0.54443
C -3.1995 -1.75782 0.542162
N -2.41148 4.08937 0.495864
C -5.71567 -0.898754 0.517218
N -7.79191 -0.232436 0.504368
C -3.78437 -6.52541 0.527989
C -2.84253 -8.62471 -0.801244
C -4.15381 -10.8824 -0.83696
C -6.44661 -11.0388 0.500588
C -7.42228 -8.98697 1.84022
C -6.07037 -6.73158 1.83795
O -7.52432 -13.356 0.333348
C 3.84937 -0.800488 0.510037
C 4.82485 0.410448 2.64581
C 7.26033 1.39651 2.59516
C 8.72298 1.22209 0.405913
C 7.72029 0.0597153 -1.74422
C 5.29539 -0.957524 -1.69414
C 11.3467 2.24292 0.350544
C -9.90613 -13.6964 1.53162
C 0.0262672 5.62987 -4.74567
C -1.49912 6.40277 0.551422
C 1.15122 7.23841 0.743985
C 2.90394 6.80396 -1.19147
C 2.28846 5.71737 -3.61958
C 1.94661 8.16003 3.09386
C 4.49074 8.6026 3.54475
C 6.25745 8.16626 1.6246
C 5.47151 7.31815 -0.725088
O 4.24281 4.69748 -5.02592
O -3.3108 8.19952 0.478479
O -1.86686 5.66162 -5.82659
H 1.55846 -5.91257 0.574855
H -2.54867 9.91388 0.508903
H -1.06845 -8.46692 -1.83398
H -3.45858 -12.5262 -1.85703
H -9.19144 -9.11528 2.87635
H -6.8032 -5.11133 2.88807
H 3.66021 0.603767 4.33182
H 8.01357 2.31888 4.26341
H 8.85318 -0.0774788 -3.45593
H 4.5121 -1.87404 -3.37165
H 11.8321 3.3023 2.06396
H 11.6447 3.52528 -1.26045
H 12.7256 0.703734 0.173477
H -10.3685 -15.6692 1.059
H -11.3287 -12.4144 0.738505
H -9.74418 -13.4656 3.58424
H 0.568052 8.41306 4.6098
H 5.12569 9.216 5.40405
H 8.26434 8.44915 1.99706
H 6.8512 6.95306 -2.21381
H 4.79159 3.09197 -4.16911

[FR-NORM-COORD]
Vibration 1
-0.00340151 -0.00566918 -0.0145509
-0.00321253 -0.00566918 -0.0158737
-0.00340151 -0.00566918 -0.0260782
-0.00359048 -0.00566918 -0.0364717
-0.00340151 -0.00566918 -0.0321253
-0.00340151 -0.00585815 -0.0253223
-0.00340151 -0.00566918 -0.034393
-0.00340151 -0.00604712 -0.0313695
-0.00340151 -0.0062361 -0.0381725
-0.00302356 -0.00604712 -0.000188973
-0.00472431 -0.0134171 0.0102045
-0.00321253 -0.0145509 0.0270231
0 -0.00793685 0.0334482
0.00113384 -0.000188973 0.0224877
-0.000377945 0.00075589 0.00548021
0.00188973 -0.0102045 0.0510226
-0.00359048 -0.00529123 -0.0241885
-0.00321253 -0.013984 -0.0190862
-0.00340151 -0.013795 -0.0153068
-0.00359048 -0.00472431 -0.0162516
-0.00377945 0.0041574 -0.020787
-0.00396842 0.00396842 -0.0249444
-0.00359048 -0.00434637 -0.0120942
0.00566918 -0.00529123 0.0597153
0.0272121 0.05518 -0.0117163
-0.00453534 -0.00585815 -0.0107714
-0.00585815 -0.00699199 0.0143619
0.00510226 0.0109604 0.0202201
0.0188973 0.0334482 0.00661404
-0.0194642 -0.0287238 0.0272121
-0.0219208 -0.0315584 0.0451645
-0.0111494 -0.0134171 0.0510226
0.00226767 0.00661404 0.0393063
0.0241885 0.0336371 0.0143619
-0.00434637 -0.00566918 -0.0100155
0.0366607 0.0782347 -0.0279679
-0.00321253 -0.00548021 -0.00944863
-0.00548021 -0.00585815 0.0188973
-0.00736993 -0.0183303 0.00472431
-0.00453534 -0.0202201 0.0355268
0.00340151 0.00491329 0.0268341
0.000566918 0.00680301 -0.00340151
-0.00302356 -0.0213539 -0.0181414
-0.00321253 -0.020598 -0.0115273
-0.00377945 0.0107714 -0.0213539
-0.00396842 0.0107714 -0.0285349
-0.00359048 -0.0113384 -0.00774788
-0.00377945 0.0020787 -0.00699199
-0.00359048 -0.00359048 -0.0183303
0.00604712 -0.00831479 0.0719986
0.00226767 -0.0109604 0.0566918
0.0113384 0.0062361 0.0580146
-0.02759 -0.0430858 0.0221098
-0.0325033 -0.0474321 0.0542351
-0.0134171 -0.0156847 0.0646286
0.0107714 0.0192752 0.0440306
0.0128501 0.0272121 0.0100155
Vibration 2
0.00453534 -0.00245664 -0.00151178
0.00453534 -0.00245664 0.0162516
0.00434637 -0.00245664 0.0151178
0.00453534 -0.00245664 0.0173855
0.0041574 -0.00245664 0.00283459
0.00434637 -0.00264562 -0.0160627
0.00510226 -0.00170075 0.0211649
0.00453534 -0.00321253 -0.0534792
0.00491329 -0.00321253 -0.096376
0.0041574 -0.00226767 -0.00151178
0.0109604 -0.00812582 0.0126612
0.0109604 -0.00812582 0.0158737
0.00453534 -0.00226767 0.00566918
-0.00245664 0.00377945 -0.00869274
-0.00283459 0.00396842 -0.0128501
0.00566918 -0.00321253 0.0111494
0.00396842 -0.00132281 0.0217318
0.00377945 -0.0128501 0.0279679
0.00283459 -0.0100155 0.0321253
0.00132281 0.00472431 0.0302356
0.00151178 0.0153068 0.0241885
0.00321253 0.0119053 0.0200311
-0.000377945 0.00944863 0.0330702
0.0020787 0.000566918 0.00510226
-0.041196 0.048188 -0.00680301
0.00718096 -0.00245664 0.0173855
0.0102045 -0.00680301 -0.00264562
-0.0075589 -0.0075589 -0.0183303
-0.034582 0.00434637 -0.0173855
0.0328812 -0.0149288 -0.00736993
0.0381725 -0.0257003 -0.02759
0.0211649 -0.0304246 -0.0421409
-0.00151178 -0.0217318 -0.0381725
-0.0568808 -0.0255113 -0.0257003
0.00888171 -0.000188973 0.0325033
-0.0478101 0.0927855 0.00566918
0.00434637 -0.00245664 0.0255113
0.0113384 -0.00113384 0.0272121
0.0166296 -0.0126612 0.0213539
0.0158737 -0.0124722 0.0264562
-0.0075589 0.00831479 -0.0168186
-0.00831479 0.00944863 -0.0249444
0.00453534 -0.0236216 0.0296687
0.00302356 -0.0192752 0.0372276
0.000566918 0.0270231 0.0224877
0.00359048 0.0190862 0.0160627
0.00585815 -0.0143619 0.0459203
-0.0102045 0.0325033 0.0496998
0.00151178 0.0143619 0.00453534
0.00377945 -0.00113384 0.0105825
0.0041574 -0.00245664 -0.00359048
-0.00396842 0.00774788 0.00472431
0.0461093 -0.0124722 0.00434637
0.0555579 -0.0309915 -0.0317474
0.0255113 -0.0410071 -0.0572587
-0.0153068 -0.0255113 -0.0500777
-0.0693529 -0.0270231 -0.020976
Vibration 3
-0.00302356 -0.000944863 0.0151178
-0.00302356 0.000377945 -0.00075589
-0.0041574 0.00075589 0.00377945
-0.00453534 -0.000377945 -0.0160627
-0.00472431 -0.000188973 0.0103935
-0.0041574 -0.00132281 0.034204
-0.00340151 0.000566918 -0.0238105
-0.00491329 -0.00245664 0.0854156
-0.00604712 -0.00453534 0.145698
-0.000188973 -0.00264562 0.00907068
-0.00529123 0.0096376 -0.0145509
-0.00188973 0.00793685 -0.0255113
0.00604712 -0.00642507 -0.013795
0.0113384 -0.0192752 0.0096376
0.00850377 -0.0173855 0.0217318
0.00831479 -0.00642507 -0.027401
-0.0041574 0.00075589 0.00944863
-0.00869274 -0.00680301 0.0158737
-0.00699199 -0.0103935 0.0260782
-0.00113384 -0.00566918 0.0298577
0.00283459 0.00340151 0.0228657
0.00151178 0.0062361 0.0128501
0.00132281 -0.0115273 0.041196
0.0122832 -0.0177634 -0.0226767
0.00453534 0.0587705 -0.0427078
-0.00132281 -0.000188973 -0.0300466
-0.000377945 -0.00453534 -0.0221098
0.00075589 -0.00132281 -0.0217318
-0.00113384 0.013984 -0.0285349
-0.00075589 -0.0164406 -0.0177634
0.000377945 -0.0264562 -0.0128501
0.00170075 -0.0262672 -0.0115273
0.0020787 -0.0145509 -0.0160627
-0.00888171 -0.0147399 -0.0179524
0.00170075 0.00226767 -0.0447865
0.0119053 0.106014 -0.0544241
-0.00226767 0.00075589 -0.00907068
0.00377945 0.00113384 -0.0394953
-0.0119053 0.0211649 -0.0243775
-0.00529123 0.0175745 -0.0434637
0.0173855 -0.0302356 0.0187083
0.0128501 -0.0279679 0.0410071
-0.0130391 -0.0109604 0.0134171
-0.0103935 -0.0173855 0.0315584
0.00718096 0.00812582 0.0253223
0.00491329 0.0120942 0.00812582
-0.00151178 -0.0179524 0.0461093
0.00944863 -0.00736993 0.0461093
-0.00188973 -0.0143619 0.0410071
0.013606 -0.0153068 -0.034204
0.00831479 -0.0145509 -0.0102045
0.0177634 -0.0309915 -0.0215429
-0.00170075 -0.0175745 -0.0183303
-0.000188973 -0.034771 -0.00982658
0.00226767 -0.0355268 -0.00736993
0.00264562 -0.0149288 -0.0153068
-0.0298577 -0.0170075 -0.00888171
Vibration 4
0.0122832 -0.0130391 0.0308025
0.0122832 -0.0119053 0.0355268
0.0111494 -0.0115273 0.0224877
0.00831479 -0.0119053 0.00188973
0.0102045 -0.0124722 0.0128501
0.0113384 -0.0132281 0.0183303
0.00566918 -0.0149288 -0.00642507
0.0109604 -0.0143619 0.0062361
0.0107714 -0.0153068 -0.00699199
0.00925966 -0.0111494 0.0292908
0.0111494 -0.0149288 0.0364717
-0.000944863 -0.0075589 0.020598
-0.0149288 0.00302356 -0.00188973
-0.0128501 0.00434637 -0.00245664
-0.00075589 -0.00302356 0.0132281
-0.0304246 0.0119053 -0.0224877
0.00888171 -0.00566918 0.0122832
0.0171965 -0.00661404 0.00907068
0.0102045 0.0100155 -0.0062361
-0.00548021 0.0272121 -0.0181414
-0.0122832 0.0232436 -0.0128501
-0.00529123 0.00718096 0.0020787
-0.0175745 0.0568808 -0.041574
-0.0470542 0.0260782 -0.0514005
0.00718096 0.0075589 -0.00793685
0.00132281 -0.0132281 -0.00812582
-0.00075589 -0.00831479 -0.00170075
0.00188973 0.000944863 -0.00151178
0.00585815 0.00680301 -0.00491329
-0.00510226 -0.0143619 0.00188973
-0.0062361 -0.0105825 0.00566918
-0.00359048 -0.00113384 0.00604712
0.000377945 0.00472431 0.00245664
0.00850377 0.0124722 -0.00548021
-0.00170075 -0.0166296 -0.0175745
0.00888171 0.00888171 -0.0107714
0.0130391 -0.0113384 0.0453534
-0.00510226 -0.0153068 -0.0166296
0.0217318 -0.0230547 0.0534792
-0.00075589 -0.0096376 0.0241885
-0.0211649 0.0111494 -0.0154958
0 -0.00170075 0.0119053
0.0283459 -0.0188973 0.0181414
0.0160627 0.0107714 -0.00944863
-0.0228657 0.0338261 -0.020787
-0.0109604 0.00585815 0.00548021
0.0255113 -0.034771 0.00283459
-0.0859825 0.151367 0.020409
-0.00434637 0.0846597 -0.175178
-0.0583925 0.0321253 -0.0659514
-0.027401 0.0417629 -0.0614161
-0.0684081 0.0151178 -0.048566
-0.00699199 -0.0217318 0.00132281
-0.00925966 -0.0151178 0.00831479
-0.00453534 0.00170075 0.00888171
0.00245664 0.0119053 0.00283459
0.00888171 0.0107714 -0.00888171
Vibration 5
-0.0120942 0.00283459 -0.0132281
-0.0119053 0.00075589 -0.013984
-0.0105825 0.000188973 -0.00699199
-0.00453534 0.00075589 -0.0041574
-0.0096376 0.00188973 -0.00548021
-0.0107714 0.00340151 -0.00699199
0.00226767 0.00793685 -0.00377945
-0.0102045 0.00491329 0.00113384
-0.0096376 0.00661404 0.0107714
-0.0111494 0.00226767 -0.013984
-0.013606 0.00566918 -0.020976
-0.00699199 0.00170075 -0.013606
0.00170075 -0.00529123 0.00075589
0.00170075 -0.00718096 0.00359048
-0.00472431 -0.00321253 -0.00377945
0.0103935 -0.0100155 0.0111494
-0.0111494 0.00226767 0.00075589
-0.013984 -0.0132281 0.0105825
-0.0177634 -0.00340151 0.0175745
-0.0194642 0.0219208 0.0145509
-0.0154958 0.0336371 0.00604712
-0.0113384 0.0236216 -0.00075589
-0.0279679 0.0436527 0.013984
0.0211649 -0.0196532 0.0300466
0.00736993 -0.0177634 0.00472431
0.0132281 0.00377945 -0.00245664
0.0170075 -0.00812582 -0.00113384
0.0147399 -0.00718096 -0.00340151
0.0117163 -0.00132281 -0.00491329
0.020598 -0.0173855 0.00132281
0.0217318 -0.0232436 0.000944863
0.0192752 -0.0196532 -0.0020787
0.0160627 -0.0117163 -0.00396842
0.0130391 0.0194642 -0.0187083
0.0222988 0.0128501 -0.00321253
0.00264562 -0.0357158 0.0124722
-0.0132281 -0.000188973 -0.0179524
0.0311805 0.00888171 -0.000944863
-0.0202201 0.0111494 -0.0315584
-0.00812582 0.00396842 -0.0177634
0.00699199 -0.0117163 0.0119053
-0.00434637 -0.00472431 -0.00113384
-0.0134171 -0.0321253 0.0132281
-0.0202201 -0.0149288 0.0249444
-0.0149288 0.0508336 0.00510226
-0.00831479 0.0328812 -0.00718096
0.0213539 -0.0937304 0.0848487
-0.0954312 0.178201 0.107903
-0.0198421 0.0718096 -0.161383
0.027779 -0.0230547 0.0377945
0.00888171 -0.0285349 0.0377945
0.0353379 -0.0143619 0.0283459
0.0221098 -0.0192752 0.00302356
0.0241885 -0.0302356 0.00226767
0.0200311 -0.0232436 -0.00302356
0.0145509 -0.00831479 -0.00604712
0.0249444 0.0168186 -0.0313695
Vibration 6
0.0154958 -0.0126612 -0.0200311
0.0154958 -0.013606 -0.0311805
0.0160627 -0.013606 -0.0253223
0.0134171 -0.0126612 -0.0149288
0.0164406 -0.0134171 -0.0179524
0.0162516 -0.0124722 -0.0132281
0.00812582 -0.0179524 -0.0041574
0.0162516 -0.0113384 0.00245664
0.0166296 -0.0103935 0.0196532
0.00831479 -0.00831479 -0.0096376
-0.0145509 -0.0115273 -0.0200311
-0.0287238 -0.00359048 -0.0126612
-0.0192752 0.00812582 0.00491329
0.00529123 0.0109604 0.0185193
0.0192752 0.00226767 0.0115273
-0.0372276 0.0162516 0.00774788
0.013984 -0.0075589 -0.0120942
-0.000188973 -0.0192752 0.00151178
-0.00604712 -0.00510226 0.0187083
0.00340151 0.020976 0.0224877
0.0187083 0.0306136 0.0103935
0.0238105 0.0164406 -0.00699199
-0.00170075 0.0353379 0.0445975
-0.0325033 0.0321253 0.0219208
-0.00793685 -0.00566918 0
-0.000377945 -0.0149288 0.00302356
-0.00359048 -0.00491329 -0.00075589
-0.00566918 0.00491329 -0.00491329
-0.00585815 0.00491329 -0.00472431
-0.00264562 -0.00548021 -0.00075589
-0.00359048 0.00377945 -0.00491329
-0.00566918 0.013795 -0.00907068
-0.00680301 0.0149288 -0.00907068
-0.00396842 0.0145509 -0.00925966
-0.00831479 -0.0221098 0.0162516
-0.0103935 -0.0156847 0.00434637
0.0145509 -0.0143619 -0.0393063
-0.0154958 -0.0190862 0.0238105
-0.0219208 -0.0202201 -0.0338261
-0.0468652 -0.0062361 -0.020976
0.0134171 0.0196532 0.0334482
0.0387394 0.0041574 0.0222988
-0.00793685 -0.0389284 -0.00151178
-0.0175745 -0.0141729 0.0289128
0.0262672 0.0489439 0.013984
0.0359048 0.0243775 -0.0168186
-0.0540462 0.11584 0.00982658
0.0362827 -0.0355268 -0.00434637
0.0105825 0.0338261 0.153068
-0.0498888 0.0362827 0.0217318
-0.027779 0.0436527 0.0325033
-0.0185193 0.02759 0.0213539
-0.000944863 -0.0130391 0.00226767
-0.00245664 0.00321253 -0.00510226
-0.00604712 0.020787 -0.0122832
-0.00831479 0.0230547 -0.0124722
0.00359048 0.0156847 -0.0120942
Vibration 7
-0.00642507 0.000188973 0.00831479
-0.0062361 0.00264562 0.00925966
-0.00831479 0.00321253 0.00453534
-0.00774788 0.00075589 -0.000944863
-0.0102045 0.00151178 0.00245664
-0.00850377 -0.000377945 0.00491329
-0.00132281 0.00736993 -0.00245664
-0.00925966 -0.00264562 0.00245664
-0.00982658 -0.00472431 -0.000188973
-0.00302356 -0.00188973 0.0075589
0.00661404 -0.00302356 0.0158737
0.0100155 -0.00491329 0.0126612
0.00321253 -0.00604712 0.00075589
-0.00604712 -0.00548021 -0.00680301
-0.00907068 -0.00340151 -0.00321253
0.00680301 -0.00736993 -0.00226767
-0.0102045 0.00812582 0.000566918
-0.013795 0.020409 -0.00453534
-0.0190862 0.0323143 -0.0103935
-0.0194642 0.0309915 -0.0111494
-0.013984 0.0147399 -0.00453534
-0.0100155 0.00434637 0.00113384
-0.0226767 0.0393063 -0.0096376
-0.000188973 -0.00831479 -0.0166296
0.00661404 -0.00359048 0.00245664
0.0103935 0.00302356 -0.00132281
0.0149288 -0.0113384 0.00226767
0.0130391 -0.0111494 0.000377945
0.00925966 -0.00170075 -0.00264562
0.0188973 -0.0247554 0.00604712
0.020598 -0.0353379 0.00736993
0.0183303 -0.0325033 0.00472431
0.0147399 -0.020787 0.00170075
0.0075589 0.00774788 -0.0119053
0.020976 0.0132281 -0.0041574
0.00434637 -0.00604712 0.00642507
-0.00472431 0.00377945 0.0126612
0.0309915 0.00888171 -0.00188973
0.0115273 -0.00245664 0.0245664
0.0175745 -0.00548021 0.0188973
-0.0107714 -0.00642507 -0.0149288
-0.0166296 -0.00302356 -0.00907068
-0.0134171 0.0213539 -0.00434637
-0.0221098 0.0427078 -0.0149288
-0.013795 0.0100155 -0.00377945
-0.00661404 -0.0062361 0.00529123
-0.112439 0.249066 -0.113573
0.0570697 -0.153824 -0.147588
-0.0103935 0.0198421 0.248877
0.00359048 -0.00869274 -0.0187083
0.00377945 -0.00925966 -0.0253223
-0.0124722 -0.00774788 -0.0156847
0.0202201 -0.0260782 0.0075589
0.0230547 -0.0449755 0.0096376
0.0192752 -0.0396842 0.00472431
0.0134171 -0.0190862 0
0.0128501 0.00529123 -0.0198421
Vibration 8
0.000566918 0.00529123 0.00925966
0.00075589 0.00869274 0.00793685
-0.00188973 0.00944863 -0.0020787
-0.00548021 0.00718096 -0.0134171
-0.00321253 0.00680301 -0.00548021
-0.00170075 0.00453534 0.00340151
-0.00680301 0.00604712 -0.0141729
-0.0020787 0.00359048 0.00510226
-0.0020787 0.00321253 0.00793685
0.00453534 0.00283459 0.0122832
0.020409 -0.00377945 0.0336371
0.0228657 -0.00510226 0.0311805
0.00831479 0 0.00699199
-0.00585815 0.00529123 -0.0115273
-0.00774788 0.00642507 -0.00850377
0.0100155 -0.000377945 0.00359048
-0.000944863 0.00793685 -0.00302356
0.0173855 -0.0374166 0.0141729
0.0239995 -0.0536682 0.0200311
0.0115273 -0.0228657 0.00907068
-0.0096376 0.0300466 -0.00944863
-0.0160627 0.0447865 -0.0156847
0.0236216 -0.0531013 0.020787
-0.00585815 0.00585815 -0.0262672
-0.0124722 -0.00680301 0.00151178
-0.00585815 0.00585815 -0.0103935
-0.00491329 0.00113384 -0.00491329
-0.00548021 0.0105825 -0.00774788
-0.00642507 0.0222988 -0.0124722
-0.00396842 -0.0164406 0.00170075
-0.00359048 -0.0228657 0.00510226
-0.00434637 -0.0105825 0.00151178
-0.00529123 0.00699199 -0.00453534
-0.00132281 0.0593374 -0.0330702
-0.00359048 0.00774788 -0.0124722
-0.0196532 -0.0370386 0.0132281
0.00321253 0.0103935 0.013606
-0.00151178 0.00680301 -0.00736993
0.0311805 -0.00812582 0.0512116
0.0349599 -0.0096376 0.0468652
-0.0156847 0.00831479 -0.02759
-0.0196532 0.0102045 -0.0226767
0.027779 -0.062361 0.0239995
0.0400622 -0.0925966 0.034204
-0.0202201 0.0559359 -0.0183303
-0.0311805 0.0814472 -0.0285349
0.0190862 -0.0366607 0.0119053
0.0572587 -0.0782347 0.00736993
0.00566918 -0.0738883 0.0561249
-0.00359048 0.00604712 -0.0289128
0.00642507 0.00718096 -0.0457314
-0.0308025 0.00869274 -0.0245664
-0.00396842 -0.0249444 0.00321253
-0.00283459 -0.0372276 0.00944863
-0.0041574 -0.0151178 0.00340151
-0.00510226 0.0179524 -0.00699199
0.020598 0.0566918 -0.0525344
Vibration 9
0.00453534 0.00321253 0.0219208
0.00359048 0.00453534 0.0334482
0.000944863 0.00566918 0.02759
-0.00359048 0.00396842 0.0124722
-0.00113384 0.00377945 0.0162516
0.00075589 0.00132281 0.00944863
-0.00472431 0.00245664 -0.00283459
-0.00321253 -0.0109604 -0.0202201
-0.00831479 -0.027779 -0.0557469
0.00359048 0.00359048 0.0153068
-0.0260782 0.02759 -0.0425188
-0.0308025 0.0304246 -0.0561249
-0.0020787 0.0100155 -0.00925966
0.0291018 -0.0132281 0.0493218
0.0317474 -0.0147399 0.0606602
-0.00888171 0.0143619 -0.0279679
0.000944863 0.00566918 0.0190862
0.0164406 -0.00396842 0.0171965
0.0187083 -0.00944863 0.00529123
0.00472431 -0.00472431 -0.00434637
-0.0119053 0.00680301 -0.00302356
-0.013606 0.0120942 0.00869274
0.00888171 -0.0158737 -0.0147399
0.0154958 -0.00340151 0.0153068
-0.000566918 -0.00170075 -0.00302356
-0.00434637 0.00264562 -0.0111494
-0.00377945 -0.000944863 -0.00396842
-0.00132281 0.000188973 -0.0020787
0.000188973 0.00548021 -0.00472431
-0.0062361 -0.0096376 0.000188973
-0.00585815 -0.0166296 0.00604712
-0.00377945 -0.0143619 0.0075589
-0.00132281 -0.00566918 0.00377945
0.00264562 0.0171965 -0.0102045
-0.00188973 0.00396842 -0.0315584
-0.00132281 -0.00982658 -0.00151178
0.00359048 0.00453534 0.0406291
-0.000188973 0.00340151 -0.034582
-0.0476211 0.0455424 -0.0763449
-0.0555579 0.047999 -0.1011
0.0504557 -0.0292908 0.0837149
0.0568808 -0.0306136 0.102612
0.027401 -0.00774788 0.0251334
0.0317474 -0.0181414 0.0041574
-0.0228657 0.0103935 -0.0103935
-0.0262672 0.0200311 0.0102045
0.00283459 0.0243775 -0.0381725
0.0255113 -0.0570697 -0.0442196
0.00245664 -0.0272121 0.0325033
0.0075589 0.00245664 -0.00151178
-0.00075589 0.00604712 0.0597153
0.05518 -0.0304246 0.0151178
-0.00831479 -0.0111494 -0.00151178
-0.00774788 -0.0238105 0.00907068
-0.00377945 -0.0194642 0.0119053
0.000944863 -0.00359048 0.00529123
0.00907068 0.0162516 -0.0162516
Vibration 10
-0.013984 -0.00642507 0.00642507
-0.0134171 -0.0171965 0.0168186
-0.0041574 -0.020787 0.020409
0.0130391 -0.0128501 0.0173855
0.00321253 -0.0115273 0.0164406
-0.00396842 -0.00321253 0.00831479
0.0168186 -0.00944863 0.0113384
0.000377945 0.00944863 0.00170075
0.00529123 0.0241885 -0.00529123
-0.0187083 -0.00377945 -0.00604712
-0.0134171 -0.00170075 -0.00604712
-0.00774788 -0.00472431 -0.00774788
-0.00793685 -0.0109604 -0.00850377
-0.0181414 -0.0107714 -0.0164406
-0.0239995 -0.00699199 -0.0156847
0.00396842 -0.0170075 -0.0020787
-0.00245664 -0.0251334 0.0173855
0.0113384 -0.0447865 0.0219208
0.00680301 -0.034204 0.0107714
-0.0120942 -0.0041574 -0.0041574
-0.0234326 0.00888171 -0.00585815
-0.0188973 -0.00132281 0.00472431
-0.0187083 0.0120942 -0.0162516
0.0166296 -0.0334482 0.0183303
0.0130391 0.013606 -0.0062361
0.013606 -0.00869274 0.00340151
0.00925966 0.00604712 -0.00151178
0.00812582 0.0215429 -0.00566918
0.0113384 0.0147399 -0.00340151
0.00736993 0.0162516 -0.00472431
0.0041574 0.0425188 -0.0128501
0.00302356 0.0582036 -0.0175745
0.00434637 0.0474321 -0.0141729
0.0147399 0.0145509 0.00132281
0.0075589 -0.0143619 -0.00359048
0.0141729 0.013795 -0.00831479
-0.0202201 -0.0215429 0.0187083
0.00151178 -0.0117163 -0.00925966
-0.0122832 0.0020787 -0.00377945
-0.00226767 -0.00340151 -0.00642507
-0.0211649 -0.013606 -0.0221098
-0.0319364 -0.00680301 -0.0215429
0.0247554 -0.0663294 0.0336371
0.0175745 -0.048188 0.013795
-0.0360938 0.027401 -0.0156847
-0.0287238 0.0103935 0.00283459
-0.0464873 0.0856046 -0.0536682
-0.00585815 -0.0514005 -0.0640617
-0.00736993 0.0126612 0.0642507
0.0304246 -0.0394953 0.0296687
-0.00075589 -0.0491329 0.0241885
0.0304246 -0.0238105 0.0160627
0.00907068 0.00434637 -0.000944863
0.00321253 0.0508336 -0.0153068
0.00113384 0.0789905 -0.0238105
0.00302356 0.0591484 -0.0183303
0.0147399 0.0166296 0.00510226
Vibration 11
0.00680301 0.00680301 -0.00944863
0.00736993 -0.000188973 -0.000566918
0.0145509 -0.00245664 0.0158737
0.0119053 0.00321253 0.0217318
0.0190862 0.00170075 0.0166296
0.013984 0.00869274 0.00188973
-0.00151178 -0.0102045 0.00359048
0.020598 0.0285349 0.00642507
0.0296687 0.0566918 0.013606
-0.00113384 0.0122832 -0.0219208
0.00151178 0.00680301 -0.0113384
-0.000566918 0.00774788 -0.00718096
-0.0041574 0.0143619 -0.0128501
-0.0132281 0.0236216 -0.0336371
-0.0117163 0.0224877 -0.0385504
0.000944863 0.0109604 0.00359048
0.0166296 -0.00736993 0.0145509
0.0285349 -0.0179524 0.0151178
0.0253223 -0.0100155 0.00359048
0.0102045 0.00925966 -0.00812582
0.00170075 0.0117163 -0.00548021
0.00529123 0.00340151 0.00604712
0.00245664 0.0283459 -0.0239995
0.0226767 0.00132281 0.0438416
-0.0126612 -0.00888171 0.00132281
-0.0164406 -0.0041574 -0.0113384
-0.0183303 -0.00151178 -0.00302356
-0.0130391 -0.0175745 0.00510226
-0.0132281 -0.013984 0.00340151
-0.0238105 -0.00491329 -0.000188973
-0.0219208 -0.0279679 0.0124722
-0.0160627 -0.0476211 0.0224877
-0.0109604 -0.041574 0.0185193
-0.0158737 -0.0194642 0.0041574
-0.0232436 -0.0132281 -0.0421409
-0.0113384 -0.00491329 -0.000944863
0.00283459 -0.00340151 -0.0075589
-0.0304246 -0.0096376 -0.0517785
0.0062361 0.00075589 -0.00396842
0.00245664 0.00283459 0.00302356
-0.0202201 0.0311805 -0.0449755
-0.0177634 0.0291018 -0.0529123
0.0394953 -0.0298577 0.0239995
0.0338261 -0.0168186 0.00359048
-0.00850377 0.0215429 -0.0128501
-0.00151178 0.00642507 0.0075589
-0.00793685 0.0634948 -0.0427078
-0.00434637 0.00113384 -0.0466762
0.0141729 0.0351489 0.0062361
0.0328812 -0.00718096 0.0695419
-0.00075589 -0.0188973 0.0529123
0.0514005 0.0222988 0.0393063
-0.0294797 0.00850377 -0.00774788
-0.0257003 -0.0319364 0.0151178
-0.0151178 -0.0678412 0.0332592
-0.00585815 -0.0557469 0.0268341
-0.0177634 -0.0188973 0.00604712
Vibration 12
0.00302356 -0.00585815 0.00188973
0.00340151 -0.0075589 0.0075589
0.00529123 -0.00793685 0.013795
0.00604712 -0.00718096 0.0107714
0.00604712 -0.00718096 0.0119053
0.00510226 -0.00529123 0.00529123
0.00434637 -0.00888171 -0.00132281
0.00718096 0.00075589 0.00377945
0.0100155 0.0096376 0.00283459
-0.00170075 -0.00302356 -0.00585815
-0.0020787 -0.00566918 -0.00151178
-0.00642507 -0.00321253 -0.0041574
-0.0100155 0.00132281 -0.00982658
-0.0128501 0.00566918 -0.0185193
-0.00869274 0.00302356 -0.0164406
-0.0113384 0.00170075 -0.00680301
0.00396842 -0.00491329 0.0126612
-0.0124722 0.0428968 -0.00699199
-0.0122832 0.0430858 -0.0102045
0.00529123 -0.00774788 0.00585815
0.0192752 -0.0491329 0.0217318
0.0185193 -0.0462983 0.0247554
0.00850377 -0.0156847 0.00396842
0.00680301 -0.00718096 0.0268341
-0.0134171 0.0130391 0.00283459
0.00283459 -0.00850377 -0.00661404
0.0020787 -0.00793685 0.00245664
-0.00302356 0.0262672 -0.00982658
-0.00604712 0.0357158 -0.0132281
0.00661404 -0.0434637 0.0145509
0.00604712 -0.0355268 0.0103935
-0.000566918 0.0119053 -0.00642507
-0.00548021 0.0428968 -0.0162516
-0.00226767 0.0614161 -0.027401
0.0041574 -0.00850377 -0.0325033
-0.0236216 -0.0100155 0.020598
0.0020787 -0.00831479 0.00642507
0.00396842 -0.00850377 -0.0247554
0.0020787 -0.0103935 0.00491329
-0.00604712 -0.00529123 -0.000566918
-0.0177634 0.0107714 -0.0264562
-0.0105825 0.00585815 -0.0219208
-0.0249444 0.0797464 -0.0198421
-0.0260782 0.0818251 -0.0255113
0.0300466 -0.0822031 0.0317474
0.0279679 -0.0742662 0.0359048
0.0232436 -0.0417629 0.0158737
0.000188973 0.0062361 0.0198421
0.00321253 -0.0166296 -0.02759
0.0120942 -0.0117163 0.041196
-0.0107714 -0.0187083 0.0396842
0.0321253 0.00245664 0.0238105
0.0113384 -0.075589 0.0243775
0.0103935 -0.0638727 0.0183303
-0.00113384 0.0230547 -0.0120942
-0.0102045 0.0778567 -0.0291018
0.0109604 0.0582036 -0.041574
Vibration 13
-0.0128501 0.00944863 0.0249444
-0.0113384 -0.00510226 0.0272121
0.00170075 -0.0100155 -0.00699199
0.0113384 -0.00075589 -0.0514005
0.0109604 -0.00075589 -0.0245664
-0.000188973 0.0120942 0.00359048
0.00264562 -0.00907068 -0.0285349
0.0134171 0.0517785 -0.00510226
0.034204 0.116218 -0.0160627
-0.0122832 0.00925966 0.0264562
-0.0105825 0.0241885 0.00340151
0.00113384 0.0185193 -0.00529123
0.0109604 -0.0020787 0.00944863
0.0105825 -0.0177634 0.0334482
-0.00188973 -0.00925966 0.0400622
0.0247554 -0.00774788 -0.00434637
0.00472431 -0.0179524 -0.00453534
-0.00510226 -0.00925966 -0.00491329
-0.00850377 -0.00113384 -0.000377945
-0.00151178 -0.00321253 0.00453534
0.0115273 -0.0194642 0.00736993
0.0141729 -0.0262672 0.00245664
-0.00925966 0.0170075 0.00661404
0.00774788 -0.0188973 -0.0425188
-0.00434637 -0.00699199 -0.0187083
-0.00869274 -0.00566918 0.0062361
-0.00944863 -0.00377945 -0.000188973
-0.013795 0.00529123 -0.0062361
-0.0102045 0.00661404 -0.00774788
-0.00377945 -0.0213539 0.00529123
-0.00283459 -0.0283459 0.00434637
-0.0075589 -0.0128501 -0.00359048
-0.0130391 0.00585815 -0.00831479
-0.0041574 0.0062361 -0.00075589
-0.0181414 -0.0132281 0.0710537
0.00585815 -0.0255113 -0.0370386
-0.020976 -0.0109604 0.0527234
-0.0257003 -0.0102045 0.0908958
-0.0192752 0.0417629 -0.00888171
0.00132281 0.0296687 -0.0232436
0.0196532 -0.0364717 0.0461093
-0.00245664 -0.0173855 0.0519675
-0.0109604 -0.00718096 -0.00925966
-0.0175745 0.00869274 -0.00170075
0.0183303 -0.0241885 0.0122832
0.0228657 -0.0351489 0.00340151
-0.0185193 0.0200311 0.00736993
-0.0196532 0.020787 0.00736993
0.00359048 0.0289128 0.00585815
0.013606 -0.013984 -0.068786
0.0194642 -0.0102045 -0.0493218
-0.020787 -0.0394953 -0.0379835
-0.00075589 -0.0309915 0.0096376
0.00151178 -0.0447865 0.00831479
-0.00661404 -0.0160627 -0.00604712
-0.0160627 0.0183303 -0.0141729
-0.00793685 0.0062361 0.00188973
Vibration 14
0.00944863 0 0.020598
0.00907068 0.00774788 0.0230547
0.00226767 0.0103935 0.00585815
-0.00869274 0.00434637 -0.0145509
-0.00321253 0.00377945 -0.00132281
0.00245664 -0.00188973 0.0119053
-0.0111494 0.0020787 0.00510226
-0.00340151 -0.0190862 0.00736993
-0.0120942 -0.0462983 0.00302356
0.00642507 0.0020787 0.0122832
0.0134171 -0.00151178 0.0232436
-0.000188973 0.00661404 0.000188973
-0.0177634 0.0164406 -0.0287238
-0.0251334 0.0202201 -0.0398732
-0.0126612 0.0122832 -0.0188973
-0.0304246 0.0241885 -0.0504557
0.000377945 0.0164406 0.00170075
0.00453534 0.0132281 0.00151178
0.00699199 0.0075589 0.000566918
0.00548021 0.00529123 -0.000377945
-0.00132281 0.0147399 -0.00226767
-0.00359048 0.0202201 -0.00113384
0.0119053 -0.0107714 0.00151178
0.0323143 -0.0143619 0.0631168
0.0111494 -0.00925966 -0.0366607
-0.00869274 0.000944863 0.020598
-0.00529123 -0.00566918 0.0020787
-0.0126612 0.00226767 -0.00585815
-0.00434637 0.000188973 -0.00718096
0.00529123 -0.0194642 0.00491329
0.00642507 -0.0228657 -0.00075589
-0.00151178 -0.00699199 -0.0117163
-0.0113384 0.00736993 -0.0130391
0.00680301 -0.00491329 0.00888171
-0.00831479 0.00377945 0.0823921
0.0360938 -0.0260782 -0.0810692
0.013984 0.0111494 0.0349599
-0.00510226 0.00245664 0.0782347
0.0300466 -0.0111494 0.0502667
0.00396842 0.00453534 0.00642507
-0.041574 0.0302356 -0.0667073
-0.0190862 0.0143619 -0.0262672
0.00699199 0.0134171 0.00302356
0.0109604 0.00302356 0.00132281
-0.00396842 0.0160627 -0.0041574
-0.0075589 0.0249444 -0.0020787
0.0194642 -0.0190862 0.00434637
0.0196532 -0.00812582 0.00510226
0.00170075 -0.0194642 -0.00359048
0.0449755 -0.0236216 0.089951
-0.0257003 -0.041574 0.12321
0.121131 -0.00510226 0.054991
0.0107714 -0.0283459 0.0117163
0.0132281 -0.0362827 0.00132281
-0.000188973 -0.00642507 -0.0188973
-0.0164406 0.020409 -0.0213539
0.00226767 -0.00113384 0.0187083
Vibration 15
0 -0.00321253 0.0317474
0.000377945 -0.00566918 0.0308025
0.00245664 -0.00661404 -0.0111494
0.00793685 -0.00453534 -0.0646286
0.0041574 -0.00377945 -0.0304246
0.00264562 -0.00226767 0.00548021
0.0109604 -0.00170075 -0.0523454
0.00283459 -0.00188973 0.00170075
0.00283459 -0.00245664 -0.00113384
-0.0020787 -0.00245664 0.0321253
0.00510226 0.00113384 0.0309915
-0.00188973 0.00604712 0.00340151
-0.0145509 0.00434637 -0.0183303
-0.0190862 -0.00151178 -0.0124722
-0.0132281 -0.00434637 0.0120942
-0.0228657 0.0111494 -0.0548021
0.00283459 -0.00661404 -0.0124722
-0.00585815 -0.00283459 -0.0102045
-0.0075589 0.000944863 -0.00302356
0.000188973 0.000188973 0.00226767
0.00925966 -0.0041574 0.000377945
0.00982658 -0.00699199 -0.00718096
-0.00170075 0.00529123 0.0113384
0.0270231 -0.0328812 0.0309915
-0.00377945 0.00434637 0.0319364
0.00774788 -0.00075589 -0.020787
0.00434637 0.00661404 -0.0111494
0.0168186 -0.0173855 0.0041574
0.0126612 -0.0075589 0.00113384
-0.0103935 0.0427078 -0.020598
-0.0120942 0.041196 -0.00944863