[Molden Format]
[FREQ]
-39.6
16.5
20.0
27.7
29.7
32.8
36.8
45.7
63.3
74.9
79.3
85.8
89.0
94.3
108.0
119.8
126.4
135.8
144.9
170.0
177.1
182.6
196.2
215.8
221.7
235.1
257.0
268.1
299.8
308.3
321.3
329.2
332.4
341.5
351.1
357.6
375.7
392.8
418.6
449.7
459.8
483.6
493.8
501.9
527.0
555.7
566.1
577.3
599.1
606.4
613.8
620.5
628.0
641.4
673.7
689.0
705.7
714.6
716.8
741.1
752.2
767.3
774.7
803.8
805.8
834.3
839.9
861.8
879.2
883.2
893.5
895.5
903.2
936.2
950.1
966.3
981.7
1004.4
1008.5
1009.2
1013.5
1016.0
1018.2
1035.1
1045.3
1048.0
1057.7
1074.8
1082.0
1087.9
1127.2
1156.6
1170.4
1179.5
1180.0
1186.6
1188.4
1207.7
1218.2
1246.8
1252.5
1258.9
1263.6
1266.1
1271.5
1280.8
1285.9
1293.0
1298.8
1316.2
1324.1
1332.4
1332.7
1338.6
1348.1
1352.0
1352.2
1361.7
1376.3
1389.6
1414.5
1447.3
1467.2
1484.1
1516.8
1520.1
1523.0
1538.9
1555.9
1564.9
1584.9
1587.2
1684.1
1694.5
1696.1
1696.8
1697.6
1704.2
1705.9
1755.9
1772.2
1845.6
1865.8
2452.8
2649.3
2651.2
2653.4
2660.4
2663.9
2671.0
2733.7
2741.1
2744.5
2744.5
2744.8
2745.2
2749.4
2755.5
2756.8
2760.1
2761.9
2764.7
2766.2
2768.3
2778.2
       
[FR-COORD]
C -0.858125 -3.64679 1.18694
C 1.82321 -3.64679 1.18694
C 3.13052 -1.40104 1.18694
N 1.86289 0.869085 1.30618
C -0.810692 0.999854 1.34057
C -2.15807 -1.38498 1.22039
N -1.97835 3.15981 1.50517
C -4.82617 -1.27311 1.08962
N -7.00824 -1.16804 0.960359
C -2.16355 -6.08605 1.11664
C -1.61987 -7.79304 -0.837905
C -2.8138 -10.1176 -0.929934
C -4.55953 -10.7374 0.977177
C -5.11965 -9.06388 2.93739
C -3.91646 -6.72497 2.98199
O -5.56109 -13.0754 0.676144
C 5.89954 -1.25346 1.03708
C 7.37825 -2.62766 2.73746
C 9.9993 -2.51334 2.58004
C 11.1569 -1.03822 0.718474
C 9.6667 0.342229 -0.973587
C 7.04698 0.23905 -0.817118
C 13.9628 -0.914627 0.542918
C -7.43872 -13.8541 2.4334
C -0.968296 5.57488 1.70378
C -2.84801 4.96091 -5.08053
C -2.60669 7.61749 -4.13944
C -0.970563 8.37092 -2.22081
C 0.423299 6.5171 -0.689183
C -3.94102 9.45411 -5.48625
C -3.64566 12.0032 -4.90441
C -1.99045 12.743 -2.98974
C -0.643641 10.9268 -1.64614
O 2.50899 5.71321 -1.11532
O -3.8301 3.29436 -3.6776
O -1.3092 6.9506 3.47199
H 2.83024 -5.43958 1.15481
H -4.44312 3.54985 -1.91391
H -0.262672 -7.27242 -2.30244
H -2.43491 -11.4635 -2.43548
H -6.46815 -9.54652 4.40401
H -4.3475 -5.3861 4.49415
H 6.47893 -3.77964 4.1916
H 11.1507 -3.5765 3.91211
H 10.5598 1.50573 -2.41772
H 5.89821 1.31336 -2.15599
H 14.6941 0.776677 1.51424
H 14.6235 -0.815039 -1.42523
H 14.8937 -2.55756 1.40671
H -7.9582 -15.7306 1.7102
H -9.07125 -12.5839 2.3854
H -6.64692 -14.0072 4.3373
H -5.21054 8.88625 -7.00729
H -4.70239 13.4254 -5.95131
H -1.75423 14.7382 -2.54338
H 0.647042 11.4961 -0.142485
H 2.86312 2.52902 1.14631

[FR-NORM-COORD]
Vibration 1
0.0117163 -0.00982658 0.0351489
0.0109604 -0.000944863 0.0221098
0.0020787 0.00434637 0.0153068
-0.00604712 -0.000377945 0.0156847
-0.00718096 -0.00850377 0.0230547
0.00264562 -0.0147399 0.0487549
-0.0107714 -0.00850377 0.000188973
0.000944863 -0.0404401 0.0653845
-0.00396842 -0.0776677 0.115084
0.013795 -0.0105825 0.0245664
0.0062361 0.00472431 0.00907068
-0.00548021 0.0115273 -0.0122832
-0.0096376 0.00340151 -0.0188973
0.00132281 -0.013606 -0.00113384
0.013795 -0.020598 0.020976
-0.0257003 0.0134171 -0.0428968
0.00113384 0.0122832 0.00585815
0.00907068 0.0128501 -0.000377945
0.00812582 0.0170075 -0.00888171
-0.000377945 0.020787 -0.0113384
-0.00793685 0.020409 -0.00472431
-0.00736993 0.0162516 0.00377945
-0.00113384 0.0247554 -0.020409
-0.0372276 0.0120942 -0.0557469
-0.0143619 -0.00548021 -0.0128501
-0.0062361 0.00907068 -0.020409
0.00812582 0.0075589 -0.0198421
0.00604712 -0.00264562 -0.0141729
-0.0075589 -0.0109604 -0.0115273
0.0234326 0.0156847 -0.0239995
0.0353379 0.013795 -0.0219208
0.0326923 0.00359048 -0.0154958
0.0183303 -0.00453534 -0.0120942
-0.00869274 -0.0170075 -0.00680301
-0.00510226 0.0119053 -0.0158737
-0.020598 0.00396842 -0.0211649
0.0171965 0.00264562 0.0168186
0.00491329 0.0122832 -0.0128501
0.00850377 0.0117163 0.013795
-0.0122832 0.0234326 -0.0247554
-0.000188973 -0.020787 -0.00491329
0.0219208 -0.0332592 0.034771
0.0154958 0.0100155 0.00132281
0.0141729 0.0173855 -0.013795
-0.0147399 0.0236216 -0.0062361
-0.0134171 0.0164406 0.00907068
-0.000566918 0.027401 -0.0253223
-0.0075589 0.0230547 -0.0226767
0.00434637 0.02759 -0.020976
-0.05518 0.0258892 -0.0786126
-0.0241885 0.0292908 -0.0436527
-0.0419519 -0.0181414 -0.0561249
0.0253223 0.0232436 -0.0283459
0.0464873 0.0200311 -0.0243775
0.041574 0.00188973 -0.0130391
0.0164406 -0.0122832 -0.0075589
-0.0119053 0.00245664 0.00661404
Vibration 2
-0.00793685 -0.0113384 -0.0096376
-0.00793685 -0.00812582 -0.00869274
-0.0109604 -0.00642507 -0.0105825
-0.0143619 -0.00812582 -0.0151178
-0.0147399 -0.0109604 -0.0196532
-0.0111494 -0.0130391 -0.0160627
-0.0164406 -0.0115273 -0.0253223
-0.0115273 -0.0192752 -0.0162516
-0.0119053 -0.0251334 -0.0149288
-0.00377945 -0.013984 -0.000377945
-0.00491329 -0.0188973 0.00377945
0.00264562 -0.0234326 0.0160627
0.0117163 -0.0226767 0.0245664
0.0109604 -0.0166296 0.0192752
0.00321253 -0.0122832 0.00661404
0.020787 -0.0283459 0.0381725
-0.0111494 -0.0020787 -0.00718096
-0.0109604 -0.00113384 -0.00642507
-0.0109604 0.00396842 -0.00245664
-0.0109604 0.00812582 0.000944863
-0.0109604 0.00680301 -0.000188973
-0.0109604 0.00170075 -0.0041574
-0.0109604 0.0141729 0.00566918
0.0351489 -0.0315584 0.0519675
-0.0179524 -0.0117163 -0.0156847
-0.00944863 0.048377 -0.0221098
0.0111494 0.0400622 -0.00396842
0.013984 0.0156847 0.00302356
-0.00359048 -0.00359048 -0.00453534
0.0279679 0.0587705 0.00491329
0.0474321 0.0531013 0.0202201
0.0506447 0.0285349 0.0266451
0.034204 0.00982658 0.0179524
-0.00548021 -0.0107714 -0.000944863
-0.013795 0.0432747 -0.0315584
-0.0283459 -0.0156847 -0.0145509
-0.00566918 -0.00680301 -0.00585815
-0.00472431 0.0315584 -0.0268341
-0.0113384 -0.0196532 -0.00245664
0.00226767 -0.02759 0.0198421
0.0162516 -0.0151178 0.0245664
0.00264562 -0.00793685 0.00264562
-0.0109604 -0.0041574 -0.00888171
-0.0109604 0.00491329 -0.00170075
-0.0111494 0.0102045 0.00245664
-0.0109604 0.000944863 -0.00491329
-0.0158737 0.0130391 0.0115273
-0.00793685 0.020787 0.00699199
-0.00907068 0.013606 0.00283459
0.0464873 -0.0402512 0.0665184
0.0253223 -0.0442196 0.0510226
0.0445975 -0.0134171 0.0495108
0.0253223 0.0778567 -0.000188973
0.0599043 0.0674632 0.027401
0.0661404 0.0239995 0.0389284
0.0366607 -0.00925966 0.0230547
-0.0160627 -0.00680301 -0.0149288
Vibration 3
-0.0120942 0.00529123 -0.00699199
-0.0120942 0.00453534 -0.0115273
-0.0113384 0.00434637 -0.000566918
-0.0113384 0.00359048 0.0170075
-0.0109604 0.00434637 0.0122832
-0.0117163 0.00548021 0.00132281
-0.0111494 0.0041574 0.0187083
-0.0115273 0.00774788 -0.000188973
-0.0111494 0.0107714 -0.00434637
-0.0115273 0.00491329 -0.00850377
-0.0156847 0.0075589 -0.0120942
-0.0100155 0.00453534 -0.00812582
0 -0.00132281 -0.00075589
0.00188973 -0.00264562 0.000944863
-0.0041574 0.000566918 -0.00302356
0.0075589 -0.00510226 0.0041574
-0.0119053 0.00661404 -0.00718096
-0.00510226 -0.02759 -0.0408181
-0.00566918 -0.0228657 -0.0474321
-0.0126612 0.0171965 -0.0200311
-0.0192752 0.0508336 0.0132281
-0.0187083 0.0449755 0.0192752
-0.0134171 0.0245664 -0.0268341
0.0253223 -0.0158737 0.0185193
-0.0119053 0.00396842 0.0202201
0.0385504 -0.0260782 0.0141729
0.0304246 -0.020598 0.00132281
0.0160627 -0.0096376 0.00925966
0.00604712 -0.00113384 0.0283459
0.0396842 -0.0285349 -0.0187083
0.0340151 -0.0253223 -0.0298577
0.0192752 -0.0143619 -0.0211649
0.0105825 -0.00642507 -0.00188973
0.0111494 0.00113384 0.0474321
0.0236216 -0.0171965 0.013984
-0.0249444 0.00850377 0.0141729
-0.0128501 0.00453534 -0.0238105
0.00472431 -0.00604712 0.00604712
-0.0230547 0.0117163 -0.0173855
-0.0126612 0.00604712 -0.0102045
0.00812582 -0.0062361 0.00548021
-0.00245664 -0.00075589 -0.00151178
0.000944863 -0.0582036 -0.0614161
-0.000377945 -0.0498888 -0.0736993
-0.0251334 0.0822031 0.034771
-0.0232436 0.0719986 0.0444086
-0.0143619 0.0194642 -0.0173855
-0.0200311 0.0398732 -0.0283459
-0.00680301 0.020787 -0.041196
0.0338261 -0.020598 0.0249444
0.0160627 -0.027401 0.02759
0.0393063 -0.00736993 0.0134171
0.0512116 -0.0372276 -0.0249444
0.0406291 -0.0313695 -0.0447865
0.0141729 -0.0119053 -0.0296687
-0.000566918 0.00226767 0.00434637
-0.0102045 0.00453534 0.0311805
Vibration 4
0.0100155 -0.013795 -0.0115273
0.0100155 -0.0124722 -0.013795
0.00869274 -0.0115273 -0.0145509
0.00680301 -0.0124722 -0.0120942
0.00699199 -0.013795 -0.0126612
0.00869274 -0.0141729 -0.0162516
0.00604712 -0.0145509 -0.0075589
0.00888171 -0.0132281 -0.020787
0.00944863 -0.0111494 -0.0270231
0.0062361 -0.0120942 -0.000566918
0.0075589 -0.0283459 0.0141729
-0.00642507 -0.0215429 0.0221098
-0.0221098 0.00170075 0.0151178
-0.0196532 0.0156847 0.00396842
-0.00510226 0.00812582 -0.00377945
-0.0396842 0.00831479 0.0217318
0.00831479 -0.00264562 -0.013795
0.0143619 -0.0062361 -0.0222988
0.013984 0.0160627 -0.0134171
0.00812582 0.0425188 0.00377945
0.0020787 0.0417629 0.00850377
0.00245664 0.0187083 -0.000566918
0.0075589 0.0729434 0.0171965
-0.0708647 0.041196 0.00321253
0.00661404 -0.0153068 -0.000188973
0.00774788 -0.00245664 -0.00151178
0.00264562 -0.00453534 0.00604712
0.00245664 -0.00680301 0.00699199
0.00548021 -0.00850377 0.0020787
-0.00170075 -0.00340151 0.0120942
-0.00548021 -0.00434637 0.0183303
-0.00491329 -0.00642507 0.0187083
-0.00113384 -0.00774788 0.0132281
0.00604712 -0.00585815 -0.000566918
0.0096376 -0.00812582 -0.00680301
0.00793685 -0.0211649 0.00472431
0.0109604 -0.0117163 -0.013984
0.00793685 -0.013984 -0.00661404
0.0187083 -0.0457314 0.0181414
-0.00642507 -0.0332592 0.0325033
-0.0291018 0.0321253 0.000944863
-0.00340151 0.0190862 -0.0128501
0.0194642 -0.0255113 -0.034393
0.0185193 0.013984 -0.0190862
-0.00302356 0.0606602 0.020409
-0.00170075 0.0192752 0.00302356
-0.0160627 0.0848487 0.0143619
0.0154958 0.0733214 0.0198421
0.0221098 0.0869274 0.027779
-0.0888171 0.0457314 0.00434637
-0.0527234 0.0636838 -0.0198421
-0.0941084 0.0376055 0.0126612
-0.00188973 -0.00151178 0.0115273
-0.00850377 -0.00340151 0.0226767
-0.00736993 -0.00718096 0.0230547
-0.00075589 -0.00944863 0.013606
0.00585815 -0.0113384 -0.00888171
Vibration 5
0.00529123 0.000944863 -0.00302356
0.00510226 0.000188973 -0.00661404
0.00642507 -0.000188973 -0.0020787
0.00585815 -0.000377945 -0.00075589
0.00566918 0.000377945 -0.00302356
0.00529123 0.00075589 0.000944863
0.00736993 0.00170075 -0.00925966
0.00491329 -0.00113384 0.00585815
0.00453534 -0.00359048 0.0120942
0.00359048 0.00170075 -0.00264562
-0.0164406 0.0109604 -0.0158737
-0.0198421 0.0126612 -0.0158737
-0.00245664 0.00529123 -0.00226767
0.0179524 -0.00359048 0.0111494
0.020598 -0.00510226 0.0109604
-0.00831479 0.00812582 -0.00434637
0.00680301 -0.00264562 0.00604712
-0.00113384 -0.0561249 -0.0298577
-0.000377945 -0.0614161 -0.020409
0.00944863 -0.0115273 0.0255113
0.0181414 0.0427078 0.061983
0.0173855 0.0461093 0.0515895
0.0102045 -0.0160627 0.0351489
0.0128501 -0.00113384 0.013984
0.0111494 0.000944863 -0.0158737
-0.0370386 0.00736993 -0.00548021
-0.0234326 0.00548021 -0.00377945
-0.00736993 0 -0.0153068
-0.00151178 -0.00359048 -0.0249444
-0.0296687 0.00982658 0.00812582
-0.0200311 0.00869274 0.00869274
-0.00396842 0.00321253 -0.00321253
0.00226767 -0.00132281 -0.0153068
-0.00566918 -0.00831479 -0.0366607
-0.0292908 0.00736993 0
0.0232436 0.00283459 -0.0151178
0.00359048 -0.000566918 -0.0120942
-0.0124722 0.00510226 0.00604712
-0.0294797 0.0166296 -0.0258892
-0.0355268 0.0194642 -0.0258892
0.0311805 -0.00925966 0.0215429
0.0362827 -0.0115273 0.020976
-0.00793685 -0.0944863 -0.0644397
-0.0075589 -0.10488 -0.0487549
0.0258892 0.0820141 0.0980768
0.0255113 0.0873053 0.0772898
0.0113384 -0.0251334 0.0500777
0.0149288 -0.0020787 0.0372276
0.00510226 -0.0245664 0.0243775
0.0062361 0.00151178 0.0117163
0.0113384 -0.00245664 0.0381725
0.0349599 -0.00888171 0.0041574
-0.0421409 0.0141729 0.0170075
-0.0247554 0.0119053 0.0179524
0.00359048 0.0020787 -0.00264562
0.0145509 -0.00548021 -0.0241885
0.00529123 -0.000188973 0.000377945
Vibration 6
0.000377945 0.00302356 0.0103935
0.000566918 0.00661404 0.0147399
-0.000566918 0.0075589 0.0111494
-0.00245664 0.00661404 0.0075589
-0.00283459 0.00377945 0.00321253
-0.000944863 0.00264562 0.00396842
-0.00529123 0.00283459 -0.00170075
-0.00075589 0.00321253 -0.000377945
-0.000566918 0.00434637 -0.00491329
0.00642507 0.000377945 0.0107714
0.0559359 -0.0224877 0.0440306
0.0644397 -0.0266451 0.0436527
0.0202201 -0.00812582 0.00944863
-0.0294797 0.013984 -0.0236216
-0.0355268 0.0170075 -0.0224877
0.0336371 -0.0141729 0.013984
-0.00075589 0.00434637 0.00736993
0 -0.0239995 -0.0156847
-0.000188973 -0.0377945 -0.0270231
-0.000377945 -0.0222988 -0.0147399
-0.000566918 0.00944863 0.0113384
-0.000377945 0.0224877 0.0221098
-0.000566918 -0.0406291 -0.0304246
-0.0258892 0.0132281 -0.0372276
-0.00925966 0.00434637 -0.00245664
-0.00680301 0.00850377 -0.00377945
-0.00491329 0.00774788 -0.00188973
-0.00472431 0.00566918 -0.00132281
-0.00680301 0.00434637 -0.00113384
-0.00340151 0.00925966 -0.00132281
-0.00151178 0.00888171 -0.000377945
-0.00113384 0.00680301 0
-0.00283459 0.00529123 -0.000566918
-0.00661404 0.00396842 0.000566918
-0.00604712 0.0075589 -0.00434637
-0.0147399 0.00585815 -0.00472431
0.00283459 0.00774788 0.020409
-0.00359048 0.00548021 -0.00340151
0.0882502 -0.0366607 0.0685971
0.103368 -0.0436527 0.0685971
-0.062361 0.0279679 -0.0491329
-0.0735103 0.0326923 -0.0470542
0.000566918 -0.0362827 -0.0251334
-0.000188973 -0.0616051 -0.0459203
-0.000566918 0.0232436 0.0222988
0.000188973 0.0461093 0.0404401
0.0166296 -0.0489439 -0.0291018
-0.0119053 -0.0385504 -0.034204
-0.00642507 -0.0496998 -0.041574
-0.0119053 0.00793685 -0.0338261
-0.0185193 0.0202201 -0.101667
-0.0863605 0.0296687 -0.0107714
-0.00377945 0.0109604 -0.00170075
-0.000377945 0.0100155 0.000188973
0.000377945 0.00661404 0.000944863
-0.00245664 0.00377945 0
-0.00434637 0.0075589 0.00680301
Vibration 7
0.00604712 -0.000566918 0.00510226
0.00548021 0.00302356 0.00434637
0.00264562 0.00510226 0.00283459
-0.000377945 0.00359048 -0.00075589
-0.00113384 -0.000188973 -0.00377945
0.00264562 -0.00264562 0.00188973
-0.00491329 -0.00188973 -0.0147399
0.00226767 -0.0109604 0.00302356
0.00151178 -0.020598 0.00831479
0.00661404 -0.00113384 0.00944863
-0.0113384 0.00510226 -0.000944863
-0.0173855 0.00831479 -0.000566918
-0.00472431 0.00529123 0.0102045
0.0158737 -0.0020787 0.0222988
0.0213539 -0.00491329 0.0219208
-0.0151178 0.0100155 0.00718096
0.00264562 0.00283459 0.00321253
-0.000566918 -0.0117163 -0.00548021
-0.000377945 -0.0253223 -0.0107714
0.00340151 -0.0236216 -0.00718096
0.00680301 -0.00566918 0.00434637
0.00661404 0.00736993 0.00944863
0.00359048 -0.0421409 -0.0162516
-0.00604712 0.0096376 0.0166296
-0.0120942 0.000188973 -0.00188973
0.0725655 0.0188973 -0.0527234
0.020976 0.0134171 -0.0241885
-0.0175745 0.0145509 0.00831479
-0.0120942 0.0149288 0.0041574
0.0130391 0.00907068 -0.0219208
-0.0313695 0.00680301 0.0109604
-0.068786 0.00869274 0.0427078
-0.0634948 0.0126612 0.0428968
-0.00944863 0.0226767 0.00359048
0.0914627 -0.00944863 -0.0718096
-0.0173855 -0.0096376 0.00472431
0.00774788 0.0041574 0.00472431
0.0697309 -0.0298577 -0.0765339
-0.0211649 0.00793685 -0.00907068
-0.0323143 0.0130391 -0.00850377
0.0270231 -0.00510226 0.0315584
0.0368497 -0.00982658 0.0304246
-0.00340151 -0.013606 -0.00869274
-0.00302356 -0.0379835 -0.0185193
0.0100155 -0.00283459 0.00850377
0.0096376 0.0202201 0.0170075
0.0183303 -0.047999 -0.0173855
-0.00245664 -0.0449755 -0.0185193
-0.00434637 -0.0491329 -0.020976
-0.0188973 0.0153068 0.0113384
-0.00113384 0.0166296 0.0340151
0.00661404 -0.00264562 0.0103935
0.0421409 0.00774788 -0.0455424
-0.0360938 0.00377945 0.0115273
-0.102045 0.00718096 0.0672742
-0.0937304 0.0141729 0.0684081
-0.00340151 0.00510226 -0.00075589
Vibration 8
-0.0222988 0.00302356 0.0160627
-0.0213539 -0.00736993 0.013795
-0.0122832 -0.0132281 0.00907068
-0.00377945 -0.00850377 0.0102045
-0.00302356 0.00283459 0.013984
-0.0134171 0.00812582 0.0211649
0.0117163 0.0119053 0.00321253
-0.0128501 0.0224877 0.0264562
-0.0126612 0.034582 0.0311805
-0.0253223 0.00491329 0.00566918
-0.00170075 0.00434637 0.0119053
0.0115273 -0.00188973 0.00548021
-0.000188973 -0.00850377 -0.00699199
-0.0304246 -0.00510226 -0.0188973
-0.0428968 0.00170075 -0.0124722
0.0224877 -0.0179524 -0.0075589
-0.0128501 -0.0141729 0.000188973
-0.0041574 -0.0096376 -0.0041574
-0.00472431 0.00907068 -0.00377945
-0.0145509 0.0230547 0.00132281
-0.0236216 0.0126612 0.00075589
-0.0226767 -0.0062361 0
-0.0153068 0.0510226 0.00774788
0.0306136 -0.0376055 -0.00774788
0.0400622 0.00188973 -0.00491329
0.0192752 0.00491329 -0.0270231
0.00888171 0.00132281 -0.0141729
0.00661404 -0.00566918 -0.00944863
0.0149288 -0.0122832 -0.0251334
-0.000188973 0.00510226 0.000188973
-0.0109604 0.0020787 0.0190862
-0.013606 -0.00472431 0.0241885
-0.00529123 -0.00869274 0.0105825
0.00283459 -0.0298577 -0.0514005
0.0359048 -0.00566918 -0.0270231
0.0857936 0.00188973 0.00359048
-0.0285349 -0.0113384 0.0147399
0.0404401 -0.0122832 -0.0245664
0.00793685 0.00850377 0.0222988
0.0315584 -0.00264562 0.0113384
-0.0438416 -0.00774788 -0.0319364
-0.0655735 0.00302356 -0.0200311
0.00359048 -0.0188973 -0.00680301
0.00245664 0.013984 -0.00604712
-0.0315584 0.020976 0.00245664
-0.0296687 -0.0132281 0.000188973
-0.034393 0.0544241 0.0164406
-0.0117163 0.0657625 0.00982658
-0.00113384 0.0568808 0.00340151
0.0604712 -0.0493218 0.000566918
0.0117163 -0.062361 -0.0181414
0.0281569 -0.0162516 -0.00510226
0.00132281 0.0105825 -0.00302356
-0.0171965 0.00529123 0.0296687
-0.0219208 -0.00699199 0.0385504
-0.00831479 -0.0143619 0.0153068
0.00245664 -0.0130391 0.00226767
Vibration 9
-0.00264562 0.00075589 -0.0245664
-0.00264562 0.00075589 -0.0557469
-0.00170075 0 -0.0527234
0.00113384 0.000566918 -0.0391173
0.00132281 0.00151178 -0.00736993
-0.000944863 0.00170075 0.00774788
0.00321253 0.00151178 0.00774788
-0.00264562 -0.00151178 0.0427078
-0.00566918 -0.0103935 0.0846597
-0.00302356 0.00113384 -0.0190862
0.00944863 -0.0130391 -0.00359048
0.0134171 -0.0154958 0.00736993
0.00321253 -0.00377945 0.00188973
-0.0128501 0.0119053 -0.0160627
-0.0151178 0.0128501 -0.0258892
0.0111494 -0.00907068 0.0171965
-0.000566918 -0.00642507 -0.0417629
-0.020976 -0.00944863 -0.0258892
-0.0192752 -0.0102045 0.0062361
0.00321253 -0.00774788 0.0219208
0.0236216 -0.0115273 0.000944863
0.0211649 -0.0105825 -0.0308025
0.00548021 -0.000566918 0.0653845
0.0041574 0.00188973 0.0147399
-0.000944863 0.00283459 0.00888171
0.0096376 -0.0020787 0.0105825
0.00377945 0.00226767 0.000188973
-0.00888171 0.0102045 0.00774788
-0.00548021 0.0151178 0.0111494
0.0107714 -0.0041574 -0.0154958
0.00340151 -0.00188973 -0.0217318
-0.0124722 0.0062361 -0.0111494
-0.0185193 0.0122832 0.00340151
-0.000377945 0.0272121 0.0120942
0.00359048 0.00491329 0.0149288
-0.000944863 -0.00226767 0.0132281
-0.00283459 0.000944863 -0.0744552
-0.0041574 0.013984 0.0109604
0.0166296 -0.0224877 -0.000188973
0.0245664 -0.0266451 0.0200311
-0.0228657 0.0224877 -0.0215429
-0.0258892 0.0230547 -0.0377945
-0.0387394 -0.0100155 -0.0372276
-0.0357158 -0.0109604 0.0198421
0.041196 -0.013606 0.0103935
0.0370386 -0.0120942 -0.0451645
-0.013984 -0.00151178 0.0818251
0.0360938 0.00661404 0.076156
-0.00377945 -0.000566918 0.0754001
0.0166296 -0.00831479 0.0321253
-0.000944863 -0.00548021 -0.00907068
-0.00680301 0.0258892 0.0211649
0.0221098 -0.0109604 -0.0222988
0.00944863 -0.00642507 -0.0340151
-0.0194642 0.00774788 -0.0145509
-0.0294797 0.0188973 0.0105825
0.000944863 0.000566918 -0.0400622
Vibration 10
0.013606 -0.00585815 -0.000188973
0.013795 -0.0041574 0.00283459
0.0130391 -0.00340151 0.0103935
0.0120942 -0.00340151 0.0143619
0.0124722 -0.00510226 0.00736993
0.013984 -0.00548021 0.0062361
0.00453534 -0.00925966 0.00113384
0.013795 -0.00453534 0.00869274
0.0134171 -0.00548021 0.0156847
0.00283459 0.00075589 -0.00944863
0.0185193 -0.013984 0.00793685
-0.0020787 -0.00321253 -0.000188973
-0.0357158 0.0200311 -0.0232436
-0.0576366 0.0377945 -0.0445975
-0.0379835 0.0270231 -0.0377945
-0.0529123 0.0283459 -0.0283459
0.0132281 -0.000944863 0.00944863
0.0181414 0.0020787 0.00774788
0.0179524 0.00340151 0.00170075
0.0134171 0.00151178 -0.00283459
0.00869274 0.000188973 0.000377945
0.00907068 -0.000944863 0.00661404
0.0130391 0.000188973 -0.0113384
0.0566918 -0.0247554 0.0651955
-0.0166296 -0.00113384 -0.00907068
-0.00302356 0.000944863 -0.00736993
-0.00472431 -0.0020787 0.00151178
0.00396842 -0.00585815 -0.00453534
-0.000188973 -0.0075589 -0.00264562
-0.0145509 0.000377945 0.0147399
-0.0134171 -0.000944863 0.0198421
-0.000377945 -0.00434637 0.00982658
0.00831479 -0.00680301 -0.00226767
0.000944863 -0.00888171 0.00774788
0.00510226 -0.00718096 -0.0113384
-0.0544241 0.013984 -0.0279679
0.0149288 -0.00340151 -0.000566918
0.00888171 -0.0156847 -0.00888171
0.047999 -0.034393 0.0279679
0.0100155 -0.013984 0.0124722
-0.0918407 0.0614161 -0.0682191
-0.0546131 0.0398732 -0.0536682
0.0222988 0.00283459 0.0107714
0.0215429 0.00529123 0.000188973
0.00453534 -0.000188973 -0.00245664
0.00566918 -0.0020787 0.00850377
0.0179524 -0.00869274 0.000377945
0.00680301 0.0158737 -0.0126612
0.013795 -0.00812582 -0.0279679
0.0939194 -0.0512116 0.10677
0.00850377 -0.0846597 0.12321
0.144942 0.0226767 0.0321253
-0.0232436 0.00359048 0.020787
-0.0219208 0.000944863 0.0308025
0.00245664 -0.00510226 0.0122832
0.0170075 -0.00982658 -0.00869274
0.0111494 -0.00264562 0.0171965
Vibration 11
0.0113384 -0.00434637 -0.00472431
0.0111494 -0.00113384 0.00302356
0.00793685 0.00113384 0.0100155
0.0041574 -0.00132281 0.0147399
0.00321253 -0.00491329 0.0145509
0.00774788 -0.00604712 -0.00396842
0.00188973 -0.00699199 0.0308025
0.00831479 -0.0105825 -0.0175745
0.00888171 -0.013984 -0.0294797
0.00888171 -0.00283459 -0.00812582
0.00982658 -0.00925966 -0.00170075
-0.000944863 -0.0041574 -0.00170075
-0.0111494 0.0075589 -0.00718096
-0.0120942 0.0143619 -0.0132281
-0.0020787 0.00888171 -0.013984
-0.0236216 0.0128501 -0.00718096
0.00812582 0.00548021 0.0105825
0.0113384 0.00661404 0.00869274
0.0111494 0.00377945 0.00170075
0.00793685 0 -0.00340151
0.00472431 0.00340151 0.00226767
0.00510226 0.0062361 0.00925966
0.0075589 -0.00944863 -0.0162516
0.013984 0.000566918 0.027779
0.00812582 -0.00944863 0.0353379
-0.0313695 0.00377945 -0.00321253
-0.0062361 0.00812582 -0.0192752
-0.0461093 -0.000188973 0.0177634
-0.0425188 -0.00529123 0.00888171
0.0493218 0.0156847 -0.0644397
0.0532903 0.0149288 -0.0629279
-0.00661404 0.00510226 -0.00718096
-0.0563138 -0.0020787 0.0328812
-0.055369 -0.0192752 -0.0313695
-0.0317474 0.0219208 0.0187083
0.0602823 -0.0270231 0.0585815
0.013606 0.000377945 0.00245664
-0.0126612 0.0357158 0.0222988
0.0187083 -0.0188973 0.00321253
-0.000944863 -0.00888171 0.00283459
-0.0215429 0.0247554 -0.0185193
-0.00302356 0.0143619 -0.0190862
0.0141729 0.00831479 0.0117163
0.013606 0.00359048 -0.000566918
0.0020787 0.00302356 0.000188973
0.00264562 0.00774788 0.0124722
0.0183303 -0.013795 -0.0170075
-0.00132281 -0.00850377 -0.0192752
0.00566918 -0.0143619 -0.0236216
0.0190862 -0.00642507 0.0423299
0.00188973 -0.0141729 0.0510226
0.0472432 0.013606 0.0151178
0.0891951 0.0211649 -0.0999665
0.0999665 0.0211649 -0.101289
-0.0119053 0.00359048 0.00226767
-0.0978878 -0.00850377 0.0710537
0.000188973 0.000377945 0.0132281
Vibration 12
-0.00226767 -0.00793685 0.0171965
-0.00264562 -0.00453534 0.0315584
-0.00604712 -0.00245664 0.0128501
-0.0103935 -0.00359048 -0.0187083
-0.0122832 -0.00529123 -0.0308025
-0.00680301 -0.00925966 -0.00982658
-0.0020787 0.00245664 -0.0651955
-0.0075589 -0.0325033 -0.0113384
-0.0096376 -0.0589595 -0.00132281
-0.000944863 -0.00944863 0.0198421
0.00831479 -0.00925966 0.0219208
0.000566918 -0.00453534 0.00869274
-0.0156847 -0.00245664 -0.00529123
-0.0217318 -0.00472431 -0.00510226
-0.0145509 -0.00831479 0.00736993
-0.027779 0.00548021 -0.0243775
-0.00642507 0.00226767 0.013984
-0.00113384 0.00075589 0.00774788
-0.00170075 0 -0.00151178
-0.0075589 0.0020787 -0.00359048
-0.0128501 0.00869274 0.00642507
-0.0120942 0.00793685 0.0147399
-0.00831479 -0.00396842 -0.0183303
0.0202201 -0.0289128 0.0113384
0.0260782 -0.0096376 -0.0149288
0.0120942 0.00472431 0.0219208
0 0.00793685 0.0149288
0.00736993 0.0292908 0.000188973
0.0239995 0.0457314 0.00661404
-0.0156847 -0.00869274 0.00699199
-0.0194642 -0.00226767 -0.0200311
-0.00699199 0.0202201 -0.0394953
0.00585815 0.0364717 -0.0300466
0.0502667 0.100155 0.0326923
-0.00907068 0.00718096 0.00793685
0.068786 -0.0627389 0.034393
-0.000188973 -0.00359048 0.054991
-0.0219208 0.00736993 0.00434637
0.0217318 -0.0120942 0.0332592
0.00680301 -0.00302356 0.00869274
-0.034582 -0.00226767 -0.0158737
-0.0213539 -0.0100155 0.00680301
0.00359048 -0.000944863 0.00944863
0.00283459 -0.00264562 -0.00736993
-0.0173855 0.0132281 0.00718096
-0.0153068 0.0107714 0.0198421
0.00188973 -0.0145509 -0.0075589
-0.0190862 0.0115273 -0.0211649
-0.00812582 -0.0143619 -0.0381725
0.0302356 -0.0321253 0.0124722
0.00245664 -0.0502667 0.0514005
0.0614161 -0.0283459 -0.00566918
-0.0234326 -0.0270231 0.020409
-0.0309915 -0.0154958 -0.0262672
-0.00718096 0.0253223 -0.062172
0.0164406 0.055369 -0.0462983
-0.0115273 -0.00321253 -0.0173855
Vibration 13
-0.0020787 -0.00812582 0.0325033
-0.000944863 -0.0179524 0.0366607
0.0096376 -0.0243775 0.00642507
0.0198421 -0.0160627 -0.0132281
0.0211649 -0.00661404 -0.000377945
0.00982658 -0.00245664 0.0111494
0.0202201 -0.00850377 0.000944863
0.0113384 0.0255113 0.00226767
0.013795 0.0555579 -0.0151178
-0.00736993 -0.00604712 0.0308025
-0.0062361 0.00491329 0.020787
-0.00548021 0.00585815 0.00529123
-0.0062361 -0.00680301 0.000566918
-0.00642507 -0.0192752 0.0109604
-0.00774788 -0.0177634 0.0257003
-0.00548021 -0.00453534 -0.0200311
0.0100155 -0.0372276 -0.0100155
0.0181414 -0.041574 -0.020409
0.0177634 -0.0241885 -0.0177634
0.0105825 -0.00113384 -0.00377945
0.00264562 -0.0153068 -0.00850377
0.00340151 -0.034204 -0.0120942
0.0100155 0.0459203 0.0190862
0.00283459 -0.02759 -0.0219208
-0.0107714 0.00264562 -0.00245664
-0.00680301 0.0103935 0.00396842
-0.00396842 0.0132281 -0.00491329
-0.0141729 0.0164406 0.00264562
-0.0115273 0.0181414 0.00396842
0.00774788 0.0102045 -0.020598
0.00510226 0.0117163 -0.0258892
-0.0111494 0.0151178 -0.0132281
-0.020787 0.0177634 0.000566918
-0.0062361 0.0306136 0.00661404
-0.00680301 0.0158737 0.0102045
-0.0455424 0.00340151 -0.00925966
-0.00907068 -0.0230547 0.0570697
-0.00491329 0.0194642 0.0100155
-0.00510226 0.013984 0.0249444
-0.00472431 0.0154958 -0.00321253
-0.0062361 -0.0294797 0.00774788
-0.0100155 -0.0266451 0.0326923
0.0249444 -0.05518 -0.0270231
0.0230547 -0.0247554 -0.0226767
-0.00377945 -0.00774788 -0.00661404
-0.00151178 -0.0430858 -0.0147399
-0.0292908 0.0693529 0.00831479
0.0251334 0.0385504 0.0238105
0.0325033 0.0719986 0.0438416
0.00359048 -0.020409 -0.0408181
0.000188973 -0.0302356 -0.00132281
0.0105825 -0.0470542 -0.0266451
0.0185193 0.00642507 -0.0283459
0.0149288 0.0096376 -0.0385504
-0.0154958 0.0158737 -0.0145509
-0.0321253 0.0213539 0.00888171
0.0228657 -0.0198421 -0.0300466
Vibration 14
0.00075589 -0.000188973 0.0062361
0.00075589 -0.000377945 0.00642507
0.00075589 -0.000377945 -0.00113384
0.000944863 -0.000188973 -0.00491329
0.00113384 -0.000188973 -0.00075589
0.000944863 -0.000188973 0.00075589
0.000566918 -0.00075589 0.00264562
0.00113384 0.000944863 -0.00321253
0.00151178 0.00264562 -0.00793685
0.00113384 -0.000377945 0.00774788
0.000188973 0.00188973 0.00548021
-0.000566918 0.00245664 0.00283459
-0.000188973 0.00075589 0.00245664
0.00188973 -0.0020787 0.00566918
0.00264562 -0.00245664 0.00831479
-0.00132281 0.00188973 -0.00151178
0.000566918 -0.000566918 -0.00491329
0.00188973 0.00359048 -0.00188973
0.000944863 0.00548021 -0.00302356
0 0.00377945 -0.00642507
-0.000377945 -0.0020787 -0.00907068
-0.00113384 -0.00510226 -0.00888171
0.00132281 0.000566918 0.0124722
-0.00585815 0.00132281 -0.00680301
-0.00132281 0 0.000377945
0.000188973 -0.00132281 0.000566918
0.000188973 -0.00075589 -0.000566918
-0.00075589 -0.000944863 0.000188973
-0.00113384 -0.00151178 -0.000188973
0.00132281 -0.00075589 -0.00151178
0.00113384 -0.00075589 -0.000944863
-0.000377945 -0.000944863 0.000377945
-0.00113384 -0.00113384 0.000944863
-0.00226767 -0.00340151 -0.00188973
0.000188973 -0.000377945 0.00151178
-0.00396842 0.0020787 -0.00170075
0.00075589 -0.000566918 0.0109604
-0.000566918 0.000566918 0.00113384
-0.000377945 0.00359048 0.00548021
-0.00170075 0.00434637 0.000944863
0.00264562 -0.00396842 0.00566918
0.0041574 -0.00453534 0.0105825
0.00264562 0.00661404 0.000944863
0.0041574 0.0102045 -0.00188973
-0.00396842 -0.00283459 -0.0119053
-0.00188973 -0.0100155 -0.0120942
0.0336371 -0.278735 0.475077
0.0103935 0.521375 0.0432747
-0.0368497 -0.255302 -0.430102
0.00151178 -0.00132281 -0.00529123
-0.00793685 -0.00170075 -0.0158737
-0.0134171 0.00642507 -0.00340151
0.00226767 -0.000566918 -0.00226767
0.00188973 -0.000566918 -0.00170075
-0.00075589 -0.000944863 0.000944863
-0.00226767 -0.00132281 0.00188973
0.00075589 -0.000377945 -0.00944863
Vibration 15
0.000566918 -0.0096376 -0.0279679
0.00170075 -0.0156847 -0.020598
0.00774788 -0.0194642 0.0298577
0.013795 -0.0158737 0.0574477
0.013984 -0.00907068 0.0166296
0.00850377 -0.00604712 0.00226767
0.013984 -0.00774788 -0.0183303
0.00831479 0.0124722 0.0200311
0.00812582 0.0289128 0.0366607
-0.0103935 -0.00377945 -0.0425188
-0.0283459 -0.00793685 -0.0436527
-0.0230547 -0.0124722 -0.0226767
-0.000377945 -0.0122832 -0.0020787
0.000188973 0.00170075 -0.013795
-0.00377945 0.00340151 -0.0332592
0.0283459 -0.0308025 0.0428968
0.00850377 -0.0158737 0.034582
0.0243775 -0.00510226 0.0285349
0.0236216 0.0062361 0.0107714
0.00585815 0.00491329 -0.00132281
-0.0109604 -0.00113384 0.00831479
-0.00869274 -0.0117163 0.0266451
0.00396842 0.0105825 -0.0294797
-0.0232436 0.0158737 0.00925966
0.000188973 -0.00321253 -0.00604712
-0.0151178 0.0111494 -0.0128501
-0.00982658 0.0075589 -0.00472431
-0.00888171 0.0075589 -0.00585815
-0.00321253 0.0143619 -0.000377945