[Molden Format]
[FREQ]
11.1
16.5
24.5
29.9
33.8
35.9
41.6
48.3
54.9
65.7
72.7
75.5
82.4
91.5
99.6
117.0
126.2
140.0
145.4
150.7
157.2
179.6
188.3
202.4
215.9
224.2
248.1
254.4
262.1
272.4
285.3
319.4
334.0
356.1
360.2
361.4
367.0
381.6
391.9
419.5
429.8
434.4
463.4
476.6
495.6
508.5
533.7
541.8
551.0
557.9
567.5
583.9
600.3
608.8
613.3
622.6
632.3
650.2
670.5
689.1
692.1
720.5
743.3
773.0
783.9
786.6
795.1
836.0
862.5
884.9
886.2
900.0
903.7
923.3
945.6
947.7
956.9
980.1
1010.5
1013.1
1015.9
1019.0
1019.7
1032.4
1034.8
1035.6
1075.6
1077.7
1083.1
1085.8
1097.9
1128.5
1134.5
1167.7
1173.4
1179.5
1183.5
1188.7
1217.8
1232.5
1243.7
1263.9
1265.0
1266.9
1273.5
1279.5
1280.8
1283.9
1286.5
1292.2
1300.0
1315.2
1322.4
1328.2
1340.3
1345.2
1350.2
1350.6
1361.8
1375.3
1390.7
1395.4
1404.0
1423.8
1428.8
1464.3
1510.1
1520.6
1530.5
1541.2
1582.4
1585.6
1665.2
1698.0
1698.6
1704.4
1707.7
1749.4
1752.9
1811.5
1843.1
1889.0
2293.6
2449.4
2628.5
2650.5
2653.9
2666.9
2672.2
2725.2
2733.1
2737.4
2741.5
2743.6
2744.6
2745.0
2751.7
2759.4
2761.5
2765.0
2766.2
2767.7
2769.7
2779.0
2793.3
       
[FR-COORD]
C -2.20833 -2.83232 -0.716584
C 0.479801 -2.83232 -0.716584
C 1.79316 -0.603012 -0.716584
N 0.565784 1.71001 -0.572965
C -2.14673 1.84059 -0.387583
C -3.47993 -0.572965 -0.573721
N -3.2371 3.91967 0.122454
C -6.14955 -0.439172 -0.651766
N -8.3352 -0.335993 -0.715639
C -3.52887 -5.2576 -0.903856
C -2.8996 -6.93718 -2.8567
C -4.14436 -9.22678 -3.08158
C -6.03446 -9.8364 -1.31525
C -6.67376 -8.19725 0.648932
C -5.4067 -5.89972 0.835259
O -7.09233 -12.1302 -1.74781
C 4.57956 -0.590917 -0.742095
C 5.88083 -1.02404 1.51329
C 8.50679 -1.02423 1.5218
C 9.84245 -0.611515 -0.72282
C 8.5289 -0.20787 -2.97651
C 5.8984 -0.2005 -2.99144
C 12.658 -0.580524 -0.685782
C -9.09544 -12.8908 -0.12699
C -3.75337 6.36781 0.3256
C 1.7291 3.39697 4.53837
C 1.49723 5.59699 3.37241
C 2.13728 6.01594 0.745686
C 2.0152 4.00301 -1.16143
C 0.554635 7.8486 4.8256
C 1.86629 10.2206 4.01548
C 2.94079 10.4385 1.72362
C 2.86123 8.34579 -0.0427078
O 3.03566 4.0682 -3.18721
O 1.91807 1.49232 5.60398
O -3.60598 7.52413 -1.9502
H 1.48627 -4.62775 -0.723387
H -1.52822 8.06686 4.46939
H -1.43619 -6.42129 -4.21787
H -3.70027 -10.549 -4.58901
H -8.13697 -8.66685 2.00481
H -5.89235 -4.59052 2.35668
H 4.84072 -1.36589 3.26091
H 9.52611 -1.34473 3.27773
H 9.55729 0.120565 -4.72658
H 4.86982 0.137194 -4.75172
H 13.3657 1.16332 0.203901
H 13.49 -0.673498 -2.58552
H 13.4369 -2.17583 0.393819
H -9.60302 -14.7478 -0.90499
H -10.6975 -11.5882 -0.266829
H -8.43611 -13.0807 1.82396
H 0.740962 7.56665 6.89334
H 1.84891 11.7618 5.3723
H 3.86959 12.1621 1.10209
H 3.36579 8.72354 -2.01067
H -4.28571 9.22602 -1.96966

[FR-NORM-COORD]
Vibration 1
-0.00566918 -0.00736993 0.0120942
-0.00529123 -0.00566918 0.0153068
-0.00736993 -0.00472431 0.0147399
-0.00925966 -0.00529123 0.013795
-0.00888171 -0.00812582 0.0221098
-0.00736993 -0.00869274 0.0166296
-0.00850377 -0.0107714 0.034204
-0.00736993 -0.0100155 0.0153068
-0.00736993 -0.0113384 0.0141729
-0.00321253 -0.00774788 0.00151178
0.00359048 -0.000566918 -0.00264562
0.00548021 -0.000566918 -0.0145509
0.000377945 -0.00774788 -0.0224877
-0.00604712 -0.0153068 -0.0181414
-0.00774788 -0.0153068 -0.0062361
0.00245664 -0.00642507 -0.034393
-0.00736993 0 0.0153068
-0.0075589 0.00888171 0.0170075
-0.0075589 0.0162516 0.0187083
-0.00736993 0.0145509 0.0185193
-0.00718096 0.00491329 0.0166296
-0.00699199 -0.00264562 0.0149288
-0.00736993 0.0232436 0.020409
-0.00453534 -0.0117163 -0.0457314
-0.00377945 -0.0103935 0.0417629
0.00793685 0.020787 -0.00699199
0.0202201 0.0179524 -0.0149288
0.0062361 0.00113384 -0.020976
-0.0156847 -0.00718096 -0.0103935
0.0493218 0.0317474 -0.0171965
0.0585815 0.0188973 -0.0391173
0.0417629 0.000944863 -0.0489439
0.0151178 -0.00718096 -0.0376055
-0.0370386 -0.0166296 -0.0215429
-0.0020787 0.0243775 0.00113384
-0.00736993 -0.00510226 0.0442196
-0.0041574 -0.00491329 0.0170075
0.0476211 0.0445975 0.000944863
0.00718096 0.00491329 0.00359048
0.0105825 0.00529123 -0.0181414
-0.00944863 -0.0211649 -0.0239995
-0.0128501 -0.020976 -0.00283459
-0.00774788 0.0102045 0.0171965
-0.00774788 0.0234326 0.0202201
-0.00680301 0.00302356 0.0164406
-0.00699199 -0.0107714 0.0132281
-0.0132281 0.0258892 0.0198421
-0.00585815 0.0245664 0.0211649
-0.00340151 0.0260782 0.0219208
-0.00472431 -0.00699199 -0.0572587
-0.00226767 -0.00869274 -0.0444086
-0.0115273 -0.0228657 -0.0444086
0.0661404 0.0398732 -0.0175745
0.0803134 0.0255113 -0.0464873
0.0478101 -0.00793685 -0.0646286
0.00377945 -0.020409 -0.0430858
-0.00548021 -0.00434637 0.0493218
Vibration 2
0.0075589 -0.00170075 0.00944863
0.0075589 -0.00283459 0.00793685
0.00907068 -0.00377945 0.00831479
0.0111494 -0.00245664 0.0103935
0.0111494 -0.00188973 0.013984
0.00944863 -0.00113384 0.0143619
0.0124722 -0.00170075 0.0130391
0.00944863 0.000944863 0.0185193
0.00944863 0.00283459 0.0224877
0.00529123 0 0.00302356
0.00491329 0.00453534 -0.000944863
0 0.00831479 -0.0105825
-0.00491329 0.00718096 -0.0160627
-0.00302356 0.00170075 -0.0107714
0.0020787 -0.0020787 -0.00113384
-0.0115273 0.0124722 -0.0270231
0.00907068 -0.0096376 0.00510226
0.0107714 -0.0113384 0.00377945
0.0107714 -0.0234326 -0.000377945
0.00925966 -0.0334482 -0.00321253
0.00736993 -0.0302356 -0.00151178
0.00736993 -0.0181414 0.00264562
0.00944863 -0.0487549 -0.00793685
-0.0202201 0.0145509 -0.0368497
-0.0115273 -0.00793685 0.0153068
0.0408181 0.0264562 0.0115273
0.00396842 0.0168186 0.000566918
-0.0124722 0.0107714 -0.00434637
0.0105825 -0.00340151 0.00888171
-0.0228657 0.0113384 -0.00850377
-0.0629279 0.0264562 -0.0289128
-0.075589 0.0287238 -0.034582
-0.0496998 0.0166296 -0.0213539
0.02759 -0.0128501 0.0170075
0.0733214 0.034771 0.020787
-0.0396842 -0.00736993 0.0134171
0.00661404 -0.00340151 0.0062361
-0.0281569 -0.0221098 0
0.00831479 0.00548021 0.00302356
-0.00075589 0.0120942 -0.0141729
-0.00585815 0.000188973 -0.0141729
0.00321253 -0.0062361 0.00283459
0.0120942 -0.00396842 0.00604712
0.0120942 -0.0255113 -0.00151178
0.00604712 -0.0376055 -0.00359048
0.0062361 -0.0158737 0.00377945
0.020409 -0.0523454 -0.0096376
0.00566918 -0.0538572 -0.00944863
0.00245664 -0.0527234 -0.00888171
-0.0285349 0.0219208 -0.048566
-0.0128501 0.0241885 -0.0336371
-0.0262672 0.000188973 -0.0362827
-0.00869274 0.0268341 -0.00774788
-0.0816362 0.034582 -0.0383614
-0.10488 0.0394953 -0.0487549
-0.0616051 0.0119053 -0.0251334
-0.055369 -0.013606 0.0190862
Vibration 3
-0.0143619 0.0145509 -0.0149288
-0.0143619 0.0115273 -0.013795
-0.0113384 0.0096376 -0.00718096
-0.00812582 0.0111494 -0.00340151
-0.00831479 0.0134171 -0.0020787
-0.0117163 0.0154958 -0.00869274
-0.00548021 0.0130391 0.00453534
-0.0115273 0.0179524 -0.00661404
-0.0115273 0.0198421 -0.00453534
-0.0119053 0.0134171 -0.0179524
-0.0103935 0.0181414 -0.0217318
0.0062361 0.00850377 -0.0141729
0.0217318 -0.00604712 -0.00245664
0.0143619 -0.00680301 -0.00434637
-0.00283459 0.00340151 -0.0122832
0.0442196 -0.0187083 0.0096376
-0.0113384 0.000377945 -0.000944863
-0.0198421 -0.0213539 0
-0.0200311 -0.0434637 0.00604712
-0.0115273 -0.0432747 0.0111494
-0.00302356 -0.0173855 0.0107714
-0.00302356 0.00434637 0.00472431
-0.0113384 -0.0733214 0.0170075
0.0799354 -0.048188 0.0396842
-0.00264562 0.0126612 0.0175745
0.00359048 0.00736993 -0.00434637
0.0041574 0.00888171 -0.0020787
-0.0020787 0.00925966 -0.00340151
-0.00566918 0.00925966 -0.00321253
0.0119053 0.00907068 0.00264562
0.0100155 0.00869274 -0.00151178
0.00226767 0.00888171 -0.00491329
-0.00340151 0.00925966 -0.00491329
-0.00585815 0.00812582 -0.00340151
0.00283459 0.00642507 -0.0062361
-0.00491329 0.0241885 0.0234326
-0.0166296 0.0102045 -0.0175745
0.0105825 0.0105825 0.0115273
-0.020787 0.0283459 -0.0291018
0.00888171 0.0107714 -0.0154958
0.0221098 -0.0154958 0.000944863
-0.00793685 0.00245664 -0.0132281
-0.0268341 -0.0224877 -0.00434637
-0.0266451 -0.062172 0.00642507
0.00359048 -0.0154958 0.0151178
0.00377945 0.0224877 0.0041574
0.00585815 -0.0908958 0.0374166
-0.00850377 -0.061983 0.0175745
-0.0306136 -0.0935414 0.00113384
0.107714 -0.0638727 0.0585815
0.0525344 -0.0808803 0.0498888
0.10677 -0.0221098 0.0330702
0.020409 0.00793685 0.00170075
0.0151178 0.00831479 -0.000944863
0.000566918 0.00888171 -0.00774788
-0.00831479 0.00925966 -0.0062361
-0.00396842 0.0247554 0.0328812
Vibration 4
-0.0041574 0.00264562 0.0179524
-0.00396842 0.0020787 0.0105825
-0.00377945 0.00170075 0.0105825
-0.00302356 0.0020787 0.0128501
-0.00264562 0.00321253 0.0132281
-0.00321253 0.00226767 0.0287238
-0.00472431 0.00661404 -0.00132281
-0.0041574 0.000566918 0.0532903
-0.00491329 -0.0020787 0.075778
-0.00188973 0.0020787 0.00812582
-0.00377945 0.0177634 -0.0062361
0.00170075 0.0162516 -0.0190862
0.00888171 -0.00132281 -0.0175745
0.0100155 -0.0168186 -0.0041574
0.00453534 -0.0145509 0.00850377
0.013984 -0.00113384 -0.0313695
-0.00396842 0 0.00283459
0.00434637 0.0243775 0.00264562
0.00434637 0.0171965 -0.00888171
-0.00434637 -0.013795 -0.0198421
-0.0128501 -0.0349599 -0.0187083
-0.0128501 -0.0272121 -0.00718096
-0.00396842 -0.0251334 -0.0328812
0.0243775 -0.0211649 -0.0283459
0.0187083 0.0158737 -0.0383614
-0.034204 0.0153068 0.0130391
-0.0194642 0.0128501 0.00548021
-0.00075589 0.00321253 0.00850377
0.00170075 -0.00075589 0.0122832
-0.0213539 0.020598 -0.00793685
-0.00453534 0.0126612 -0.0041574
0.0132281 0.00170075 0.00321253
0.0153068 -0.0020787 0.00774788
0.00982658 -0.00793685 0.0162516
-0.0474321 0.0170075 0.0185193
0.0559359 -0.0168186 -0.0527234
-0.00434637 0.00188973 0.00585815
-0.0175745 0.0287238 -0.0253223
-0.00907068 0.0311805 -0.00680301
0.000566918 0.0283459 -0.0300466
0.0151178 -0.0302356 -0.00359048
0.00510226 -0.0264562 0.0188973
0.0107714 0.0487549 0.0111494
0.0111494 0.0357158 -0.0096376
-0.0194642 -0.0576366 -0.0268341
-0.0198421 -0.0419519 -0.00566918
0.00774788 -0.0281569 -0.0362827
-0.0128501 -0.0289128 -0.0364717
-0.0062361 -0.0285349 -0.0360938
0.0285349 -0.0175745 -0.0398732
0.0183303 -0.0268341 -0.0119053
0.0334482 -0.0328812 -0.0325033
-0.0394953 0.0253223 -0.00566918
-0.00736993 0.0162516 -0.00812582
0.0262672 -0.00434637 0.00566918
0.0300466 -0.00925966 0.0100155
0.0731324 -0.0103935 -0.0850377
Vibration 5
-0.00245664 -0.00075589 -0.00736993
-0.00245664 -0.00151178 -0.0222988
-0.00170075 -0.0020787 -0.0170075
-0.00170075 -0.00188973 -0.013984
-0.000566918 -0.000944863 -0.00472431
-0.00170075 -0.00151178 0.00944863
0.000377945 0.00113384 -0.00925966
-0.00283459 -0.00359048 0.0427078
-0.00377945 -0.00661404 0.0725655
-0.00491329 0.000377945 -0.0062361
-0.0309915 0.0145509 -0.0268341
-0.0349599 0.0168186 -0.027401
-0.0120942 0.00472431 -0.00680301
0.0145509 -0.0096376 0.013795
0.0177634 -0.0113384 0.013795
-0.0192752 0.00869274 -0.0102045
-0.00170075 -0.000944863 -0.00548021
-0.0156847 -0.0258892 -0.00188973
-0.0158737 -0.0166296 0.0170075
-0.00132281 0.0173855 0.0319364
0.0130391 0.0379835 0.0272121
0.0130391 0.027779 0.00812582
-0.00188973 0.0323143 0.0532903
0.00718096 -0.00585815 0.0156847
0.00907068 0.00472431 -0.0266451
0.0298577 -0.0100155 -0.0100155
0.0105825 -0.0111494 -0.00793685
0 -0.00434637 -0.0096376
-0.00321253 -0.00075589 -0.0130391
0.00226767 -0.0171965 -0.0041574
-0.00548021 -0.0117163 -0.00113384
-0.0103935 -0.0041574 -0.00264562
-0.00925966 -0.000566918 -0.00699199
-0.00850377 0.00396842 -0.0154958
0.0462983 -0.00944863 -0.0119053
0.0187083 -0.0115273 -0.034582
-0.00340151 -0.0020787 -0.0332592
0.00151178 -0.0238105 -0.00453534
-0.048188 0.0238105 -0.0417629
-0.0555579 0.02759 -0.0428968
0.0321253 -0.0187083 0.0294797
0.0377945 -0.0217318 0.0291018
-0.0268341 -0.0523454 -0.013606
-0.027401 -0.0353379 0.0202201
0.0241885 0.062361 0.0383614
0.0247554 0.0421409 0.00396842
-0.0185193 0.0349599 0.0616051
0.0126612 0.0402512 0.0591484
-0.000566918 0.0351489 0.0561249
-0.00075589 -0.0020787 0.0115273
0.00245664 -0.00831479 0.048188
0.0372276 -0.0170075 0.00453534
0.00264562 -0.0196532 -0.00453534
-0.00699199 -0.0147399 0.00226767
-0.0158737 -0.000566918 -0.00075589
-0.0166296 0.00510226 -0.00793685
0.0245664 -0.00944863 -0.048377
Vibration 6
-0.0149288 -0.000566918 0.00793685
-0.0149288 0 0.0194642
-0.0151178 0.000188973 0.013795
-0.0158737 -0.000188973 0.00869274
-0.0156847 -0.000377945 0.00642507
-0.0153068 0.000377945 -0.00340151
-0.020976 -0.00321253 0.0147399
-0.0145509 0.00188973 -0.02759
-0.013795 0.00340151 -0.0500777
-0.0117163 -0.00188973 0.00434637
0.0128501 -0.0113384 0.0200311
0.0211649 -0.0156847 0.0192752
0.00396842 -0.0109604 0.00226767
-0.0228657 -0.00075589 -0.0149288
-0.0302356 0.00340151 -0.013795
0.0168186 -0.0173855 0.00510226
-0.0153068 0.000377945 0.00718096
-0.0075589 -0.00831479 0.000944863
-0.0075589 -0.00302356 -0.00680301
-0.0151178 0.0103935 -0.00869274
-0.0224877 0.0158737 -0.00340151
-0.0224877 0.0100155 0.00434637
-0.0151178 0.0194642 -0.0170075
0.00151178 -0.0143619 -0.0124722
0.0440306 0.0149288 -0.00661404
0.0476211 0.00359048 0.0117163
0.0120942 -0.00245664 0.0075589
-0.0103935 -0.000188973 0.00245664
-0.0164406 -0.000377945 0.00340151
0.00170075 -0.00812582 0.00944863
-0.0162516 -0.00075589 0.00226767
-0.0294797 0.00453534 -0.00359048
-0.0283459 0.00359048 -0.00283459
-0.0241885 -0.000944863 -0.000377945
0.0789905 0.00907068 0.0158737
0.139273 0.00132281 -0.00736993
-0.0143619 0.000188973 0.0287238
-0.00113384 -0.0219208 0.0164406
0.0260782 -0.0151178 0.0326923
0.041196 -0.0228657 0.0315584
-0.0370386 0.00359048 -0.0289128
-0.0506447 0.0105825 -0.0262672
-0.00132281 -0.0194642 0.00245664
-0.00170075 -0.00907068 -0.0113384
-0.0285349 0.0249444 -0.00529123
-0.0281569 0.0130391 0.00831479
-0.0183303 0.020598 -0.0162516
-0.0202201 0.0255113 -0.0194642
-0.00642507 0.020409 -0.0217318
0.0160627 -0.020598 -0.00680301
-0.00132281 -0.020409 -0.0376055
-0.0192752 -0.000566918 -0.00396842
0.0103935 -0.00510226 0.00907068
-0.0177634 -0.000377945 0.00188973
-0.0419519 0.00925966 -0.00888171
-0.0438416 0.0062361 -0.00642507
0.180847 0.0173855 -0.0377945
Vibration 7
-0.00226767 -0.0041574 -0.0177634
-0.00226767 -0.0109604 -0.0154958
0.0020787 -0.013795 -0.00359048
0.00718096 -0.0107714 0.00566918
0.00718096 -0.00566918 0.00151178
0.00245664 -0.0020787 -0.0124722
0.00907068 -0.00680301 0.0096376
0.00283459 0.00283459 -0.0190862
0.00321253 0.00642507 -0.0257003
-0.0102045 0 -0.0198421
-0.0364717 0.00888171 -0.0355268
-0.041196 0.0107714 -0.0294797
-0.0177634 0.00359048 -0.00680301
0.00548021 -0.00264562 0.00585815
0.00831479 -0.00359048 -0.00132281
-0.0215429 0.0041574 0
0.00226767 -0.0134171 -0.00188973
0.00396842 0.0238105 0.0041574
0.00396842 0.0410071 0.00491329
0.0020787 0.0196532 0
0.000566918 -0.0232436 -0.00680301
0.000566918 -0.0387394 -0.0075589
0.00188973 0.0447865 0.00188973
0.0249444 -0.0185193 0.0466762
0.0171965 -0.00642507 0.0270231
-0.00566918 0.00529123 0.0109604
-0.00283459 0.00170075 0.00377945
0.00113384 -0.00661404 0.00359048
0.0149288 -0.0147399 0.0111494
-0.00661404 0.00510226 -0.00340151
-0.0171965 0.00680301 -0.0145509
-0.0168186 0.00113384 -0.0149288
-0.00566918 -0.00736993 -0.00529123
0.0338261 -0.0239995 0.0202201
-0.00869274 0.00888171 0.0179524
0.0260782 0.0107714 0.0364717
-0.00680301 -0.0132281 -0.0226767
-0.00831479 -0.00340151 0.000944863
-0.0523454 0.0134171 -0.0508336
-0.0616051 0.0168186 -0.0408181
0.020598 -0.0062361 0.020976
0.0258892 -0.0075589 0.0075589
0.00566918 0.0408181 0.00831479
0.00548021 0.0725655 0.00982658
-0.000944863 -0.0427078 -0.0111494
-0.00151178 -0.0670853 -0.0115273
-0.0141729 0.0566918 -0.00869274
0.00434637 0.0402512 0.00321253
0.0147399 0.0583925 0.0126612
0.0283459 -0.0247554 0.0591484
0.00699199 -0.0366607 0.0822031
0.0710537 -0.0103935 0.0319364
-0.00075589 0.013795 -0.00264562
-0.0251334 0.0132281 -0.0219208
-0.0245664 0.00264562 -0.0222988
-0.00264562 -0.0145509 -0.00585815
0.0308025 0.0128501 0.0478101
Vibration 8
0.0164406 -0.00585815 -0.00888171
0.0160627 0.0041574 -0.0175745
0.00774788 0.00925966 -0.013795
-0.000566918 0.00491329 -0.00680301
-0.00113384 -0.0062361 0.000377945
0.00831479 -0.0107714 -0.00377945
-0.0120942 -0.0147399 0.0141729
0.00718096 -0.0230547 0.00359048
0.00661404 -0.0351489 0.00925966
0.020598 -0.00888171 0.000566918
0.00377945 -0.00793685 -0.00510226
-0.00585815 -0.00340151 -0.000944863
0.00226767 0.000944863 0.00907068
0.0255113 -0.00359048 0.020409
0.034582 -0.00850377 0.0160627
-0.0153068 0.00925966 0.00774788
0.00774788 0.013606 -0.00888171
0 -0.00359048 -0.00736993
-0.000188973 -0.0194642 -0.00075589
0.00793685 -0.0162516 0.00453534
0.0156847 0.00907068 0.00453534
0.0154958 0.0236216 -0.00226767
0.00812582 -0.0419519 0.0103935
-0.0336371 0.0323143 -0.00377945
0.0253223 -0.00661404 0.034204
-0.0396842 -0.000188973 -0.0219208
-0.0171965 0.00907068 -0.00944863
-0.0194642 0.0128501 -0.00907068
-0.0103935 0.0107714 -0.00812582
0.00151178 0.00774788 0.00529123
-0.0154958 0.0122832 -0.00736993
-0.0317474 0.0164406 -0.0143619
-0.0287238 0.0147399 -0.0119053
-0.00907068 0.0132281 -0.00736993
-0.0608492 -0.00925966 -0.034393
0.0712427 0.0154958 0.0493218
0.0226767 0.00793685 -0.0245664
-0.00396842 0.00529123 0.0357158
-0.00359048 -0.0102045 -0.013984
-0.020598 -0.0020787 -0.00642507
0.0359048 -0.00302356 0.0319364
0.0517785 -0.0107714 0.0236216
-0.00661404 -0.0062361 -0.0117163
-0.0062361 -0.0357158 -0.000188973
0.0219208 0.0153068 0.00944863
0.0221098 0.0402512 -0.00302356
0.0222988 -0.0502667 0.0153068
0.0111494 -0.0462983 0.0119053
-0.00869274 -0.0510226 0.00907068
-0.0614161 0.0453534 -0.0168186
-0.0122832 0.0589595 -0.000377945
-0.0421409 0.00982658 -0.00302356
0.0321253 0.00510226 0.00245664
-0.0141729 0.013606 -0.00850377
-0.0455424 0.0215429 -0.0213539
-0.0326923 0.0141729 -0.0132281
0.0927855 0.0241885 0.0559359
Vibration 9
-0.0103935 0.00434637 -0.0117163
-0.00944863 -0.00245664 -0.0262672
-0.00170075 -0.00774788 -0.0215429
0.00642507 -0.00321253 -0.013984
0.0075589 0.00453534 -0.00377945
-0.00170075 0.00812582 0.00529123
0.0147399 0.00793685 -0.00453534
-0.00188973 0.0226767 0.0398732
-0.00226767 0.0379835 0.0731324
-0.0117163 0.00510226 -0.00925966
0.0230547 -0.0171965 0.0202201
0.034582 -0.0239995 0.027779
0.00718096 -0.00869274 0.00377945
-0.0326923 0.0153068 -0.0292908
-0.0402512 0.0200311 -0.034393
0.0262672 -0.0202201 0.0181414
-0.00151178 -0.0134171 -0.0160627
-0.00944863 -0.00151178 -0.00907068
-0.0096376 0.0107714 0.00264562
-0.00170075 0.0100155 0.00718096
0.00642507 -0.00982658 -0.00113384
0.0062361 -0.020976 -0.0126612
-0.0020787 0.0328812 0.0217318
-0.00434637 -0.00302356 -0.0115273
0.0196532 0.00718096 0.0166296
-0.0103935 -0.0145509 -0.0153068
0.00132281 -0.00869274 -0.00699199
0.000188973 -0.0041574 -0.0062361
0.0156847 -0.0075589 -0.00434637
0.0062361 -0.0124722 0.00245664
-0.0143619 -0.00472431 -0.00680301
-0.0251334 0.00151178 -0.0111494
-0.013795 -0.00075589 -0.00869274
0.0372276 -0.0128501 0.00642507
-0.0222988 -0.020409 -0.0236216
0.00510226 0.0257003 0.0255113
-0.0141729 -0.00529123 -0.034582
0.00170075 -0.0215429 0.0228657
0.0427078 -0.0292908 0.0364717
0.0646286 -0.041196 0.0517785
-0.0555579 0.0287238 -0.0491329
-0.0682191 0.034204 -0.05518
-0.0153068 -0.000377945 -0.0124722
-0.0158737 0.0228657 0.00850377
0.0126612 -0.0141729 0.00188973
0.0122832 -0.0325033 -0.0181414
-0.0213539 0.0430858 0.0171965
0.00850377 0.0308025 0.0266451
0.00529123 0.0444086 0.0334482
0.0170075 -0.0156847 0.00491329
-0.00529123 -0.0096376 -0.062361
-0.0432747 0.0268341 0.00453534
0.0281569 -0.0128501 0.00075589
-0.0202201 -0.00321253 -0.00831479
-0.041385 0.00850377 -0.0162516
-0.0156847 -0.000377945 -0.00907068
0.00642507 0.0264562 0.0445975
Vibration 10
-0.00113384 0.00434637 0.0245664
-0.00113384 0.000566918 0.0368497
0.00151178 -0.00113384 0.0251334
0.00264562 0.00075589 0.00982658
0.00188973 0.00472431 0.0041574
0 0.00566918 0.00944863
0.00510226 0.00869274 -0.00699199
0.00075589 0.00736993 -0.0075589
0.00132281 0.00907068 -0.0230547
-0.00283459 0.00585815 0.0175745
-0.00529123 0.0175745 0.00680301
-0.00585815 0.0192752 -0.00510226
-0.00264562 0.00888171 -0.00510226
-0.000566918 -0.00226767 0.00491329
-0.00132281 -0.00245664 0.0158737
-0.00245664 0.0113384 -0.0181414
0.00151178 -0.00321253 0.0196532
0.0103935 0.00680301 0.0162516
0.0105825 0.0102045 0.00661404
0.00188973 0.00170075 0
-0.00699199 -0.0122832 0.00264562
-0.00680301 -0.0143619 0.0126612
0.00188973 0.0075589 -0.0107714
0.0196532 -0.0128501 -0.00264562
-0.00377945 0.00850377 -0.0234326
-0.00132281 -0.027401 -0.027401
0.0258892 -0.00736993 0.00359048
-0.0113384 0.00661404 -0.00245664
0.00188973 -0.00075589 0.00302356
0.0727545 -0.0158737 0.0476211
0.0200311 -0.000377945 0.00925966
-0.047999 0.0171965 -0.020598
-0.0548021 0.0149288 -0.0166296
0.00982658 -0.00736993 0.00736993
-0.0262672 -0.0459203 -0.0559359
-0.0096376 -0.00831479 -0.0326923
-0.00377945 -0.000944863 0.0512116
0.0576366 -0.0272121 0.131525
-0.00661404 0.0253223 0.00831479
-0.00869274 0.0281569 -0.013795
0.000944863 -0.0102045 0.00377945
-0.00075589 -0.00944863 0.0217318
0.0177634 0.0113384 0.0215429
0.0173855 0.0196532 0.00434637
-0.013984 -0.0211649 -0.00302356
-0.013795 -0.0241885 0.0147399
0.00170075 0.0105825 -0.0166296
-0.00491329 0.00604712 -0.013795
0.00925966 0.0109604 -0.0109604
0.0241885 -0.0111494 -0.00944863
0.00944863 -0.0226767 0.0219208
0.0406291 -0.020787 -0.0105825
0.160249 -0.0228657 0.0393063
0.0376055 -0.000944863 0.0107714
-0.0937304 0.0330702 -0.0455424
-0.089573 0.0179524 -0.0249444
-0.0134171 -0.0100155 -0.0440306
Vibration 11
-0.00472431 0.00548021 0.00188973
-0.00472431 0.00661404 0.00510226
-0.0075589 0.00793685 -0.00170075
-0.0096376 0.00680301 -0.0162516
-0.0107714 0.00718096 -0.0215429
-0.00812582 0.00377945 -0.00831479
-0.0120942 0.0100155 -0.0410071
-0.00869274 -0.00510226 -0.000944863
-0.00944863 -0.0158737 0.00736993
0.00245664 0.000944863 0.00831479
-0.00491329 0.0103935 -0.00226767
0.00226767 0.00661404 -0.00132281
0.0166296 -0.00585815 0.00982658
0.0289128 -0.0179524 0.0238105
0.0211649 -0.0132281 0.0226767
0.0196532 -0.00680301 0.00699199
-0.00736993 0.0100155 0.00472431
-0.0109604 0.0555579 0.0153068
-0.0109604 0.0529123 0.0188973
-0.00793685 -0.00377945 0.0103935
-0.00472431 -0.0489439 0.000377945
-0.00472431 -0.0377945 -0.00170075
-0.00793685 -0.0190862 0.0126612
-0.0183303 0.013795 -0.0304246
0.00264562 0.0100155 -0.00188973
0.0241885 -0.013984 -0.0109604
0.00472431 -0.0154958 -0.00925966
0.00075589 -0.00377945 -0.00869274
-0.00472431 0.00359048 -0.0158737
-0.00472431 -0.0236216 -0.00302356
0.000377945 -0.020976 0.0130391
0.00396842 -0.0102045 0.0156847
0.00132281 0 0.00321253
-0.00585815 0.00396842 -0.0162516
0.0396842 -0.0113384 -0.00869274
-0.00302356 0.0495108 0.0190862
-0.00359048 0.00736993 0.0145509
-0.00283459 -0.0226767 -0.0130391
-0.0171965 0.0211649 -0.0111494
-0.00472431 0.013795 -0.00982658
0.0444086 -0.0308025 0.0359048
0.0291018 -0.020598 0.0313695
-0.0124722 0.0888171 0.020598
-0.013795 0.0922186 0.02759
-0.00188973 -0.0931635 -0.0062361
-0.00283459 -0.0667073 -0.00793685
0.0020787 -0.0168186 0.000377945
-0.0062361 -0.0385504 0.0143619
-0.0188973 -0.0158737 0.0255113
-0.0385504 0.0292908 -0.0540462
0.00548021 0.0419519 -0.0419519
-0.0495108 -0.013984 -0.0224877
-0.0160627 -0.0328812 -0.00340151
0.00151178 -0.0287238 0.0219208
0.00831479 -0.00869274 0.0266451
-0.000944863 0.0107714 0.00491329
0.00075589 0.0517785 0.0523454
Vibration 12
-0.00188973 0.00226767 0.0360938
-0.00170075 -0.00434637 0.0500777
0.00321253 -0.00718096 0.0239995
0.00661404 -0.0041574 -0.00321253
0.00585815 0.00396842 -0.00585815
0.00113384 0.00491329 0.0111494
0.0100155 0.0103935 -0.0294797
0.00170075 0.00869274 0.000566918
0.00226767 0.0124722 -0.00736993
-0.00377945 0.00340151 0.0308025
-0.00170075 0.0173855 0.0192752
-0.00170075 0.0198421 0.00113384
-0.00245664 0.00718096 -0.00396842
-0.00359048 -0.0075589 0.00793685
-0.00472431 -0.0075589 0.0247554
-0.00283459 0.0115273 -0.0258892
0.00321253 -0.0117163 0.0153068
0.0132281 -0.0362827 0.00472431
0.013606 -0.0306136 -0.00604712
0.00377945 0.00302356 -0.00566918
-0.0062361 0.0221098 0.00359048
-0.00604712 0.0117163 0.013795
0.00377945 0.0213539 -0.0164406
0.020787 -0.020409 -0.0122832
0.0181414 0.00831479 0.0107714
-0.0117163 -0.00907068 -0.0166296
-0.013984 -0.0100155 -0.0179524
0.0105825 -0.0096376 -0.0124722
0.00869274 -0.00812582 -0.0130391
-0.0410071 -0.0122832 -0.0332592
-0.034582 -0.0103935 -0.0177634
-0.000188973 -0.0111494 -0.0020787
0.0222988 -0.0105825 -0.00377945
0.000944863 -0.00869274 -0.0166296
-0.0102045 -0.0109604 -0.020409
0.00151178 0.0489439 0.0317474
-0.0062361 -0.00680301 0.0746442
-0.0370386 -0.0179524 -0.062172
0 0.0272121 0.0247554
-0.00132281 0.0308025 -0.00850377
-0.00434637 -0.0177634 0.00321253
-0.0075589 -0.0168186 0.0313695
0.020787 -0.0570697 0.00529123
0.0213539 -0.0504557 -0.0141729
-0.0141729 0.0453534 0.00321253
-0.0134171 0.0222988 0.0196532
-0.00510226 0.0243775 -0.0154958
-0.00321253 0.0315584 -0.0202201
0.0192752 0.0243775 -0.0232436
0.027779 -0.0170075 -0.0247554
0.00888171 -0.0319364 0.0166296
0.0423299 -0.0336371 -0.020787
-0.0699199 -0.00982658 -0.0304246
-0.0578256 -0.00869274 -0.0202201
0.00812582 -0.0111494 0.0109604
0.0434637 -0.0100155 0.00170075
0.00151178 0.0496998 0.0685971
Vibration 13
-0.0124722 0.00264562 -0.00642507
-0.0124722 -0.0041574 -0.00736993
-0.00661404 -0.00812582 -0.00170075
0.000377945 -0.00434637 0.00680301
-0.00132281 0.00283459 -0.00831479
-0.00736993 0.00491329 -0.0075589
0.00340151 0.00869274 -0.0268341
-0.00699199 0.00831479 -0.00925966
-0.00680301 0.00944863 -0.0115273
-0.0096376 0.000377945 -0.00321253
-0.0222988 0.0113384 -0.0168186
-0.00642507 0.00188973 -0.00661404
0.020976 -0.0175745 0.0160627
0.034204 -0.0283459 0.0291018
0.0175745 -0.0179524 0.0188973
0.0394953 -0.0287238 0.0283459
-0.00699199 -0.0171965 -0.00491329
-0.00566918 -0.0428968 -0.0109604
-0.00548021 -0.0364717 -0.0122832
-0.0075589 0.00113384 -0.00661404
-0.00925966 0.0177634 -0.00264562
-0.00907068 0.00566918 -0.00245664
-0.00793685 0.0300466 -0.00548021
-0.0317474 0.013984 -0.0396842
0.00264562 0.00736993 -0.0122832
-0.00491329 0.0109604 0.0183303
0.00453534 0.00982658 0.013795
-0.000566918 -0.000377945 0.0115273
0.0100155 -0.00850377 0.0185193
0.0213539 0.0177634 0.0134171
0.0147399 0.0147399 -0.00604712
-0.000188973 0.00585815 -0.013606
-0.00510226 -0.00340151 -0.0020787
0.0326923 -0.0143619 0.0292908
-0.0128501 0.0128501 0.0228657
-0.0075589 0.020976 -0.00566918
-0.0171965 -0.00680301 -0.0132281
0.0185193 0.0187083 0.0321253
-0.0444086 0.0272121 -0.034582
-0.0158737 0.0096376 -0.0162516
0.0585815 -0.0461093 0.0493218
0.0266451 -0.0247554 0.027401
-0.00491329 -0.0634948 -0.0143619
-0.00377945 -0.0568808 -0.0170075
-0.0107714 0.0421409 0.000944863
-0.0105825 0.0166296 0.000377945
-0.0281569 0.0500777 -0.0281569
-0.00642507 0.0147399 -0.0041574
0.00982658 0.0532903 0.0154958
-0.0542351 0.0309915 -0.0653845
0.00453534 0.0540462 -0.0808803
-0.0954312 -0.0126612 -0.020787
0.041574 0.0251334 0.0128501
0.0219208 0.020787 -0.0126612
-0.00699199 0.00453534 -0.027779
-0.00982658 -0.0132281 -0.00529123
-0.00850377 0.020976 0.00831479
Vibration 14
-0.0075589 0.0132281 0.00642507
-0.00793685 0.00491329 0.00396842
-0.00170075 0.00113384 -0.0041574
0.00283459 0.00359048 -0.00510226
0.00850377 0.00812582 0.0355268
-0.00075589 0.0162516 0.0141729
0.0177634 -0.000377945 0.102801
0.00075589 0.034582 -0.00718096
0.00264562 0.0582036 -0.0332592
-0.00982658 0.0158737 0.00075589
-0.0185193 0.0281569 -0.0124722
-0.00396842 0.0200311 -0.00642507
0.0196532 0.00151178 0.0124722
0.0243775 -0.00736993 0.0213539
0.00869274 0.00188973 0.0149288
0.0425188 -0.0115273 0.0251334
-0.0020787 -0.0041574 -0.00566918
-0.00604712 0.00302356 -0.00170075
-0.00642507 0.00566918 0.00396842
-0.00226767 -0.00170075 0.00491329
0.00188973 -0.0143619 0.000377945
0.00170075 -0.013984 -0.00491329
-0.00245664 0.00604712 0.0122832
-0.0115273 0.0175745 -0.0283459
-0.00170075 0.000944863 0.0311805
-0.00396842 -0.013984 -0.0238105
-0.00340151 -0.0102045 -0.0162516
0.0130391 -0.00321253 -0.0119053
0.00453534 0.00132281 -0.0149288
-0.0325033 -0.0175745 -0.0253223
-0.0330702 -0.0115273 -0.00812582
-0.00321253 -0.00585815 0.00604712
0.0194642 -0.00170075 -0.000188973
-0.00812582 -0.0020787 -0.020976
-0.00359048 -0.0217318 -0.0374166
0.00396842 -0.0738883 -0.00888171
-0.0132281 0.00170075 0.00548021
-0.0298577 -0.0272121 -0.0510226
-0.0362827 0.0436527 -0.0258892
-0.0105825 0.02759 -0.0149288
0.0421409 -0.0232436 0.0351489
0.0130391 -0.00340151 0.020787
-0.00925966 0.00680301 -0.00283459
-0.00982658 0.013606 0.00736993
0.00529123 -0.0230547 0.00075589
0.00491329 -0.020598 -0.00793685
-0.0103935 0.0215429 -0.0113384
0.00302356 -0.0190862 0.0158737
-0.000377945 0.0245664 0.0377945
-0.0200311 0.0262672 -0.0436527
0.0113384 0.041574 -0.0663294
-0.0631168 0.00491329 -0.0120942
-0.0576366 -0.0188973 -0.0234326
-0.0572587 -0.0120942 -0.00774788
0.000377945 -0.00264562 0.020787
0.0351489 0.00396842 0.00510226
0.00075589 -0.0765339 -0.0702978
Vibration 15
-0.00188973 -0.000566918 0.00113384
-0.00170075 -0.00283459 0.000944863
-0.000188973 -0.00396842 0
0.00132281 -0.00302356 -0.000377945
0.00188973 -0.000566918 0.000566918
-0.000188973 0.000377945 0.000566918
0.00396842 0.000377945 0.000944863
0 0.00359048 -0.00132281
0.000377945 0.00736993 -0.00321253
-0.00321253 0.000188973 0.00132281
-0.00642507 0.00245664 -0.00188973
-0.00434637 0.00132281 -0.000377945
0.000944863 -0.0020787 0.0041574
0.00264562 -0.00359048 0.00585815
0.00075589 -0.00226767 0.00453534
0.00642507 -0.00548021 0.00774788
-0.000188973 -0.00132281 -0.00132281
0.00132281 0.00699199 -0.000188973
0.00075589 0.0151178 -0.000944863
-0.000566918 0.0160627 -0.00226767
-0.00132281 0.0096376 -0.0020787
-0.00188973 -0.000377945 -0.00170075
-0.000377945 -0.00245664 0.0041574
-0.00982658 0.00359048 -0.00831479
0.00245664 0 -0.000377945
-0.000188973 -0.0020787 0.000944863
0.00188973 -0.00245664 -0.000377945
0.00264562 -0.00377945 -0.000377945
0.00453534 -0.00472431 0.000944863
0.00113384 -0.00188973 -0.00170075
-0.00302356 -0.00075589 -0.00491329
-0.00283459 -0.00170075 -0.00510226