[Molden Format]
[FREQ]
10.5
16.7
25.2
32.3
36.1
43.7
45.0
51.8
62.5
82.8
90.1
104.8
110.0
122.9
126.9
133.5
139.2
142.1
152.7
177.6
184.7
197.6
217.1
226.3
253.4
256.3
272.4
291.4
298.5
307.6
318.4
322.8
338.1
339.5
359.6
364.8
381.4
403.6
426.5
434.7
467.9
473.4
500.4
515.6
521.2
535.8
546.2
560.1
574.6
585.9
588.2
612.2
614.5
635.1
638.5
662.3
669.2
693.2
696.6
717.3
723.3
741.2
767.2
774.3
795.1
799.6
820.3
838.2
869.5
883.2
884.3
887.1
899.8
903.9
934.6
951.3
959.2
997.7
1009.1
1010.3
1014.9
1017.4
1018.8
1036.9
1042.3
1043.5
1073.7
1076.1
1081.9
1083.0
1102.8
1124.0
1127.2
1162.8
1178.9
1180.8
1188.8
1190.0
1201.0
1209.6
1224.0
1257.0
1261.9
1265.5
1266.5
1267.5
1280.3
1283.5
1285.6
1293.7
1300.3
1327.6
1331.8
1338.9
1341.5
1348.3
1348.3
1351.0
1361.5
1366.5
1378.7
1385.4
1397.2
1426.4
1476.4
1490.5
1517.6
1521.0
1524.3
1529.8
1568.2
1574.1
1588.5
1620.9
1690.0
1692.7
1697.9
1698.5
1700.3
1702.7
1707.6
1713.9
1908.0
2463.7
2651.0
2653.6
2665.7
2670.5
2690.9
2721.1
2736.1
2739.7
2743.1
2743.6
2744.7
2745.2
2747.2
2757.5
2758.3
2758.7
2762.3
2764.4
2768.2
2768.7
2779.0
       
[FR-COORD]
C -2.64221 -2.61595 -0.841117
C 0.0315584 -2.61595 -0.841117
C 1.38271 -0.381914 -0.841117
N 0.114328 1.85855 -0.770441
C -2.58722 1.98157 -0.941084
C -3.95576 -0.346387 -0.909903
N -3.44289 4.33749 -1.10643
C -6.6267 -0.2519 -1.02669
N -8.80745 -0.207681 -1.13535
C -3.94499 -5.0588 -0.814094
C -3.33593 -6.88673 -2.63617
C -4.55159 -9.2041 -2.64429
C -6.38954 -9.69354 -0.787449
C -7.01051 -7.90246 1.04577
C -5.775 -5.57998 1.01365
O -7.41491 -12.0313 -1.00212
C 4.15948 -0.39722 -0.994941
C 5.62099 -1.08489 1.08678
C 8.24128 -1.1688 0.861526
C 9.40158 -0.56843 -1.43374
C 7.91776 0.0986437 -3.51791
C 5.30257 0.168564 -3.30702
C 12.2037 -0.649688 -1.68016
C -9.41575 -12.6627 0.677089
C -1.46284 6.07207 -1.04729
C -0.996453 5.23511 4.40268
C 1.71946 5.6174 3.73202
C 2.78716 5.05917 1.38933
C 1.1688 4.48186 -0.8534
C 3.26242 6.34721 5.74496
C 5.87081 6.45833 5.44751
C 6.95268 5.80108 3.136
C 5.41293 5.11435 1.11853
O 2.24896 4.83562 -3.19742
O -2.50578 7.06701 4.099
O -1.51632 8.33199 -1.03557
H 1.04729 -4.4059 -0.84981
H 4.10411 4.60885 -3.21159
H -1.91448 -6.46797 -4.07293
H -4.12395 -10.6365 -4.05384
H -8.43725 -8.27851 2.46855
H -6.24687 -4.15796 2.43586
H 4.71997 -1.54485 2.88353
H 9.38702 -1.70491 2.48367
H 8.80915 0.509848 -5.32619
H 4.13207 0.606791 -4.95203
H 13.0593 1.1858 -1.20319
H 12.8089 -1.11343 -3.61486
H 13.0661 -2.06453 -0.427645
H -9.93259 -14.5705 0.0417629
H -11.0114 -11.3665 0.443141
H -8.74811 -12.7094 2.63409
H 2.41148 6.79602 7.56968
H 7.06304 7.0415 7.0192
H 8.99283 5.86269 2.89544
H 6.30205 4.64703 -0.682758
H -1.99479 8.71296 3.32951

[FR-NORM-COORD]
Vibration 1
0.00491329 -0.000944863 -0.00453534
0.00472431 -0.00075589 -0.00774788
0.00510226 -0.00075589 -0.00680301
0.00510226 -0.000944863 -0.000377945
0.00529123 -0.00113384 -0.00434637
0.00510226 -0.00075589 -0.00472431
0.00510226 -0.00132281 -0.0075589
0.00510226 -0.00075589 -0.00491329
0.00510226 -0.00075589 -0.00510226
0.00491329 -0.000944863 -0.00075589
0.00302356 -0.00340151 0.00113384
0.00377945 -0.00377945 0.0062361
0.00661404 -0.00170075 0.0096376
0.00793685 0.000944863 0.00736993
0.00699199 0.00151178 0.0020787
0.00774788 -0.00283459 0.0151178
0.00453534 -0.00264562 -0.0151178
0.0100155 -0.0321253 -0.0285349
0.00888171 -0.0357158 -0.0383614
0.00264562 -0.0100155 -0.0349599
-0.00264562 0.0200311 -0.0213539
-0.00188973 0.0236216 -0.0119053
0.00151178 -0.0149288 -0.0461093
0.0124722 -0.00226767 0.020976
0.00491329 -0.00132281 -0.00283459
-0.0351489 0.0576366 -0.00925966
-0.0247554 0.020787 0.0105825
-0.0100155 -0.00566918 0.0234326
0.0041574 -0.000377945 0.0113384
-0.034204 0.0132281 0.020409
-0.0300466 -0.0192752 0.0434637
-0.0168186 -0.0453534 0.0570697
-0.00699199 -0.0400622 0.0478101
0.0196532 0.00396842 0.0187083
-0.0103935 0.0744552 -0.0302356
0.00566918 -0.00113384 -0.00812582
0.00491329 -0.00075589 -0.0119053
0.0239995 0.0402512 0.0370386
0.00075589 -0.00491329 -0.00151178
0.00226767 -0.00566918 0.00774788
0.00982658 0.00283459 0.0096376
0.00812582 0.00359048 0.000377945
0.0149288 -0.0529123 -0.0313695
0.0132281 -0.0593374 -0.0491329
-0.00774788 0.0410071 -0.0192752
-0.00642507 0.048188 -0.00226767
0.00736993 -0.0196532 -0.0387394
-0.00736993 -0.00472431 -0.0514005
0.00359048 -0.0241885 -0.0580146
0.0149288 -0.00491329 0.0270231
0.0096376 -0.00566918 0.020787
0.0164406 0.0041574 0.0198421
-0.0451645 0.0326923 0.0105825
-0.0374166 -0.0245664 0.0510226
-0.013984 -0.0710537 0.0752111
0.00396842 -0.0646286 0.0593374
0.0149288 0.0640617 -0.0360938
Vibration 2
-0.00302356 -0.00888171 0.0183303
-0.00302356 -0.00661404 0.0183303
-0.00434637 -0.00585815 0.0188973
-0.00510226 -0.00642507 0.0217318
-0.00566918 -0.00869274 0.0245664
-0.00434637 -0.00944863 0.0260782
-0.00793685 -0.0096376 0.020598
-0.00472431 -0.0105825 0.0319364
-0.00491329 -0.0115273 0.0381725
-0.000566918 -0.0103935 0.00472431
0.00661404 0 -0.00340151
0.00831479 -0.00075589 -0.020409
0.00245664 -0.0124722 -0.0294797
-0.0041574 -0.0234326 -0.020976
-0.00566918 -0.0222988 -0.00377945
0.00396842 -0.0115273 -0.0468652
-0.00453534 -0.00680301 0.0154958
-0.00226767 -0.00472431 0.0143619
-0.00264562 -0.00850377 0.0105825
-0.00548021 -0.013984 0.00774788
-0.00793685 -0.0153068 0.00888171
-0.0075589 -0.0117163 0.0128501
-0.00604712 -0.0190862 0.00321253
-0.00566918 -0.0200311 -0.061794
-0.00888171 -0.00850377 0.00907068
0.0126612 0.0710537 0.0062361
0.0130391 0.0449755 -0.00774788
0.00245664 0.00812582 -0.00359048
-0.00718096 -0.00604712 0.00718096
0.0238105 0.0614161 -0.0217318
0.0234326 0.0404401 -0.0306136
0.0126612 0.00283459 -0.0249444
0.00245664 -0.0134171 -0.0113384
-0.0168186 -0.0175745 0.000377945
0.0253223 0.0795575 -0.00434637
-0.00925966 -0.00831479 0.00075589
-0.00170075 -0.00585815 0.0162516
-0.0153068 -0.00264562 -0.00359048
0.0109604 0.00888171 0.00321253
0.013984 0.0075589 -0.0272121
-0.00812582 -0.0325033 -0.027401
-0.0111494 -0.0308025 0.00283459
0 -0.00075589 0.0166296
-0.000944863 -0.00736993 0.0096376
-0.0102045 -0.0198421 0.00680301
-0.0096376 -0.0130391 0.013984
-0.0020787 -0.020409 0.00170075
-0.00982658 -0.020409 0.00245664
-0.00680301 -0.020409 0.00226767
-0.00661404 -0.013984 -0.0786126
-0.0020787 -0.0151178 -0.0593374
-0.0149288 -0.0360938 -0.0589595
0.0319364 0.0905179 -0.0251334
0.0319364 0.0532903 -0.041574
0.0124722 -0.0141729 -0.0311805
-0.00566918 -0.0442196 -0.0075589
0.034393 0.068786 -0.0215429
Vibration 3
-0.0143619 0.0151178 -0.0166296
-0.0145509 0.0117163 -0.0181414
-0.0115273 0.00982658 -0.0102045
-0.00850377 0.0111494 -0.0075589
-0.00850377 0.0149288 -0.00548021
-0.0119053 0.0166296 -0.00774788
-0.00510226 0.0164406 -0.000944863
-0.0120942 0.0190862 0.00226767
-0.0126612 0.020598 0.0120942
-0.0124722 0.013984 -0.0194642
-0.0230547 0.0245664 -0.0336371
-0.00793685 0.0166296 -0.0268341
0.0192752 -0.00226767 -0.00472431
0.0243775 -0.0096376 0.00396842
0.00774788 -0.00075589 -0.00377945
0.0393063 -0.0119053 0.00510226
-0.0109604 0.0020787 -0.000188973
-0.0236216 -0.0075589 0.00566918
-0.0232436 -0.0245664 0.0158737
-0.0105825 -0.0319364 0.020409
0.0020787 -0.0188973 0.0156847
0.00170075 -0.00151178 0.00529123
-0.0103935 -0.05518 0.0300466
0.0842818 -0.0434637 0.0466762
-0.00264562 0.013795 0.000944863
0.00283459 0.00566918 0
0.00321253 -0.00075589 -0.0020787
-0.000944863 0.00264562 -0.00472431
-0.00472431 0.00982658 -0.00377945
0.00736993 -0.0100155 -0.00188973
0.00718096 -0.0149288 -0.00472431
0.00283459 -0.0103935 -0.00812582
-0.00113384 -0.00151178 -0.00812582
-0.00642507 0.0122832 -0.0041574
0.00793685 0.0103935 0.0041574
0.000188973 0.013795 0.00434637
-0.0170075 0.0102045 -0.0236216
-0.00793685 0.000188973 -0.00793685
-0.0421409 0.0383614 -0.048377
-0.0149288 0.0238105 -0.0362827
0.0410071 -0.0221098 0.0173855
0.0119053 -0.00642507 0.00302356
-0.0336371 -0.00283459 0.00170075
-0.0332592 -0.0334482 0.0202201
0.0120942 -0.0230547 0.0196532
0.0111494 0.00718096 0.00113384
0.00302356 -0.0612271 0.0291018
-0.00793685 -0.0644397 0.0330702
-0.0258892 -0.0595264 0.0357158
0.106581 -0.0548021 0.062172
0.0566918 -0.0727545 0.0736993
0.122454 -0.0260782 0.0340151
0.0105825 -0.0130391 0.000377945
0.0103935 -0.0221098 -0.00453534
0.00264562 -0.013795 -0.0105825
-0.00434637 0.00226767 -0.0105825
0.0120942 0.0103935 0.00661404
Vibration 4
0.00680301 -0.00434637 0.000944863
0.00661404 -0.00661404 -0.0158737
0.00774788 -0.00718096 -0.0130391
0.00869274 -0.00680301 -0.0096376
0.00831479 -0.00510226 0
0.00699199 -0.00396842 0.0181414
0.0096376 -0.00529123 -0.00982658
0.00510226 -0.00340151 0.061983
0.00283459 -0.00359048 0.106203
0.00283459 -0.00264562 0.000566918
-0.0391173 0.0187083 -0.034393
-0.0496998 0.0241885 -0.041196
-0.0160627 0.00831479 -0.0122832
0.0291018 -0.013984 0.0249444
0.0376055 -0.0185193 0.0306136
-0.0332592 0.0170075 -0.0251334
0.00812582 -0.00491329 -0.00812582
0.00321253 0.00151178 -0.00226767
0.00434637 0.0115273 0.00736993
0.0105825 0.0151178 0.0115273
0.0154958 0.00585815 0.00491329
0.0143619 -0.0041574 -0.00472431
0.0119053 0.0298577 0.0230547
-0.00548021 0.00510226 0.00340151
0.0113384 -0.00642507 -0.0215429
-0.0153068 -0.00888171 -0.020598
-0.0134171 -0.00340151 -0.00944863
-0.00132281 -0.00340151 -0.0041574
0.0096376 -0.00699199 -0.0113384
-0.0239995 0.000944863 -0.00283459
-0.0226767 0.00491329 0.00925966
-0.0107714 0.00453534 0.0149288
-0.000188973 0.000188973 0.00812582
0.0196532 -0.0117163 -0.00699199
-0.0187083 -0.0132281 -0.0291018
0.0122832 -0.00642507 -0.0336371
0.00491329 -0.0075589 -0.027401
0.020409 -0.00736993 0.00264562
-0.0642507 0.0311805 -0.0555579
-0.0837149 0.0408181 -0.0685971
0.0563138 -0.0272121 0.0487549
0.0712427 -0.034393 0.0576366
-0.00170075 -0.000566918 -0.00529123
0.000377945 0.0173855 0.0120942
0.020409 0.00718096 0.00774788
0.0185193 -0.0102045 -0.00925966
-0.000188973 0.0366607 0.0190862
0.0221098 0.0257003 0.0272121
0.0151178 0.0396842 0.0319364
-0.0298577 0.0179524 -0.0149288
-0.00170075 0.0187083 0.0527234
0.0313695 -0.0279679 -0.00982658
-0.0332592 0.00075589 -0.00718096
-0.0311805 0.00831479 0.0143619
-0.00982658 0.00736993 0.0245664
0.00907068 -0.000377945 0.0128501
-0.0200311 -0.0130391 -0.0294797
Vibration 5
-0.00453534 -0.00774788 -0.0151178
-0.00453534 -0.00831479 -0.0156847
-0.00434637 -0.00850377 -0.0103935
-0.0041574 -0.00812582 -0.00566918
-0.00396842 -0.00736993 -0.00604712
-0.0041574 -0.0075589 -0.0132281
-0.00453534 -0.00699199 0.00226767
-0.00396842 -0.00793685 -0.0190862
-0.00359048 -0.00850377 -0.0258892
-0.00699199 -0.00661404 -0.0111494
-0.0187083 -0.00774788 -0.013606
-0.0217318 -0.00642507 -0.00604712
-0.0119053 -0.00377945 0.0041574
-0.00075589 -0.00188973 0.0062361
0.00151178 -0.00321253 -0.00170075
-0.0151178 -0.00302356 0.0119053
-0.00396842 -0.00377945 -0.00321253
-0.0096376 -0.0075589 -0.000566918
-0.00736993 0.0179524 0.0134171
0 0.0476211 0.0249444
0.00510226 0.0423299 0.0196532
0.00321253 0.0160627 0.00510226
0.00283459 0.0880612 0.0432747
-0.00132281 -0.00264562 0.0285349
-0.00491329 -0.00718096 0.00774788
0.0113384 0.02759 0.00151178
0.0153068 -0.00585815 -0.00321253
0.00491329 -0.0147399 -0.00548021
-0.0041574 -0.0075589 -0.00075589
0.0262672 -0.0234326 -0.00510226
0.0264562 -0.0453534 -0.0103935
0.0154958 -0.047999 -0.0149288
0.00491329 -0.0330702 -0.0117163
-0.0120942 -0.00245664 -0.0041574
0.0355268 0.047999 0.0020787
-0.00359048 -0.00718096 0.013606
-0.00491329 -0.00850377 -0.0194642
-0.0102045 0.0158737 -0.00831479
-0.0255113 -0.0100155 -0.020976
-0.0309915 -0.00736993 -0.00774788
0.00604712 0.000566918 0.013795
0.0100155 -0.00170075 -0.000377945
-0.0153068 -0.0281569 -0.00869274
-0.0117163 0.0171965 0.0162516
0.0113384 0.0610381 0.0268341
0.00774788 0.0134171 0.00132281
-0.027401 0.101667 0.0449755
0.0215429 0.0933525 0.047999
0.0158737 0.103368 0.0514005
-0.00359048 -0.00453534 0.0359048
-0.00472431 -0.00529123 0.0381725
0.013606 0.00151178 0.0234326
0.0340151 -0.0192752 -0.00245664
0.0351489 -0.0591484 -0.0119053
0.0151178 -0.062172 -0.0202201
-0.00283459 -0.0370386 -0.0147399
0.0566918 0.0406291 0.00075589
Vibration 6
-0.0041574 0.00888171 0.00869274
-0.00377945 0.0103935 -0.00132281
-0.00377945 0.0100155 -0.0096376
-0.00359048 0.0100155 -0.0179524
-0.0041574 0.00907068 -0.00340151
-0.00434637 0.00925966 0.0149288
-0.00453534 0.00888171 -0.00774788
-0.00566918 0.013795 0.047999
-0.00736993 0.0198421 0.0823921
0.0020787 0.00585815 0.0107714
0.0406291 -0.00774788 0.0362827
0.0514005 -0.0130391 0.034582
0.0196532 -0.00491329 0.00548021
-0.0190862 0.0075589 -0.0200311
-0.0262672 0.0117163 -0.0160627
0.0325033 -0.0103935 0.00585815
-0.00359048 0.00793685 -0.00585815
-0.00982658 0.00812582 -0.00132281
-0.00925966 0.00566918 0.00642507
-0.00245664 0.00283459 0.00907068
0.00377945 0.00188973 0.0041574
0.00321253 0.00434637 -0.00321253
-0.00188973 0.00113384 0.0175745
-0.0109604 0.0041574 -0.0404401
-0.00491329 0.0096376 -0.0171965
-0.00944863 -0.000566918 -0.0190862
-0.00396842 -0.020598 -0.00944863
-0.0041574 -0.00075589 -0.013984
-0.00396842 0.0107714 -0.0173855
-0.00226767 -0.0570697 0.00226767
-0.00132281 -0.0674632 0.00699199
-0.00245664 -0.0376055 -0.00226767
-0.00377945 -0.00453534 -0.0124722
-0.00283459 0.0151178 -0.0154958
0.00831479 0.0141729 -0.0194642
-0.00510226 0.0096376 -0.0245664
-0.00245664 0.0109604 0.00113384
-0.00472431 -0.00151178 -0.0177634
0.0627389 -0.013795 0.0561249
0.082959 -0.0232436 0.0546131
-0.0423299 0.013606 -0.0417629
-0.0546131 0.0190862 -0.0326923
-0.0153068 0.0103935 -0.00340151
-0.0143619 0.0062361 0.0100155
0.00944863 -0.00075589 0.0062361
0.00831479 0.00302356 -0.00718096
-0.00264562 0.00264562 0.0128501
0.00340151 -0.00642507 0.020976
-0.00566918 0.00566918 0.0253223
0.0020787 0.000566918 -0.0404401
-0.00321253 0.00491329 -0.0890061
-0.0597153 0.0164406 -0.0236216
-0.00188973 -0.0771008 0.0075589
0.000188973 -0.0971319 0.0168186
-0.00226767 -0.0408181 -0.000566918
-0.00453534 0.0183303 -0.0185193
0.0262672 0.0119053 -0.0120942
Vibration 7
-0.0130391 0.00377945 0.0102045
-0.0124722 -0.00472431 0.0185193
-0.0062361 -0.00925966 0.0171965
0.000377945 -0.00529123 0.0143619
0.00151178 0.00359048 0.00642507
-0.00585815 0.0075589 0.00566918
0.0109604 0.0062361 -0.0041574
-0.00510226 0.0164406 -0.00340151
-0.00453534 0.0253223 -0.0117163
-0.0168186 0.00566918 0.00075589
-0.00925966 0.00982658 -0.00132281
-0.00188973 0.00604712 -0.00585815
-0.00188973 -0.00245664 -0.00812582
-0.0145509 -0.0041574 -0.0107714
-0.0221098 0.000188973 -0.00661404
0.0117163 -0.00831479 -0.00869274
-0.00661404 -0.0102045 0.00793685
0.00869274 0.047999 0.0158737
0.00831479 0.0627389 0.00377945
-0.00793685 0.0179524 -0.0162516
-0.0239995 -0.0464873 -0.0255113
-0.0232436 -0.0595264 -0.0124722
-0.00831479 0.0404401 -0.0262672
0.0321253 -0.0304246 0.00699199
0.0177634 -0.00075589 -0.00774788
-0.00226767 0.00434637 -0.00245664
0.00113384 -0.00472431 0.00585815
0.00604712 -0.00680301 0.00850377
0.0109604 -0.00944863 0.00548021
-0.00302356 -0.00793685 0.0100155
-0.00226767 -0.0102045 0.0160627
0.00245664 -0.00812582 0.0177634
0.00661404 -0.00699199 0.013984
0.0202201 -0.0226767 0.00831479
0.00472431 0.00831479 -0.0132281
0.0251334 -0.000566918 -0.0170075
-0.0179524 -0.00793685 0.0238105
0.0151178 -0.0672742 0.00850377
-0.00793685 0.0154958 0.00170075
0.00510226 0.00888171 -0.00661404
-0.0183303 -0.00869274 -0.0156847
-0.0317474 -0.00151178 -0.00812582
0.0217318 0.0840928 0.0315584
0.0211649 0.111116 0.0105825
-0.0374166 -0.0852266 -0.0408181
-0.0351489 -0.10488 -0.0158737
-0.020598 0.0440306 -0.0179524
-0.00925966 0.0563138 -0.0302356
0.00510226 0.0394953 -0.0364717
0.0531013 -0.0391173 0.0158737
0.013795 -0.0519675 0.013984
0.0453534 -0.0162516 0.00283459
-0.00680301 -0.00812582 0.00831479
-0.00529123 -0.0126612 0.0192752
0.00283459 -0.0075589 0.0217318
0.0100155 -0.00491329 0.0151178
0.0128501 0.00472431 -0.0154958
Vibration 8
0.013984 -0.000188973 0.0075589
0.0132281 0.00831479 0.0117163
0.00472431 0.013795 0.00604712
-0.00321253 0.00907068 -0.00302356
-0.00377945 -0.000377945 -0.00283459
0.00529123 -0.00548021 -0.00264562
-0.0117163 -0.00340151 -0.00245664
0.00529123 -0.0215429 -0.0154958
0.00566918 -0.0391173 -0.0292908
0.0187083 -0.00264562 0.0115273
-0.00226767 0.00793685 -0.00566918
-0.0103935 0.0120942 -0.0102045
0.00491329 0.00604712 0.00321253
0.0330702 -0.00736993 0.0260782
0.0391173 -0.0107714 0.0294797
-0.0117163 0.0143619 -0.00812582
0.00491329 0.0175745 0.0062361
0.00642507 0.0462983 0.0147399
0.00548021 0.0321253 0.0107714
0.00321253 -0.0122832 -0.0020787
0.0020787 -0.034582 -0.00812582
0.00264562 -0.0181414 -0.00340151
0.00188973 -0.0385504 -0.00869274
-0.0177634 0.0217318 -0.0124722
-0.0185193 0.00434637 -0.000566918
-0.00888171 0.0141729 -0.00226767
-0.00453534 -0.00718096 0.00188973
-0.00925966 0.00831479 -0.00359048
-0.0120942 0.0134171 -0.00283459
0.00075589 -0.0376055 0.00888171
0.00075589 -0.0453534 0.00736993
-0.00472431 -0.0181414 -0.00302356
-0.0096376 0.00850377 -0.00831479
-0.0153068 0.0226767 -0.0020787
0.0102045 0.0308025 0.000377945
-0.0264562 0.00396842 0
0.0190862 0.0117163 0.0181414
-0.0213539 -0.0268341 -0.0145509
-0.0141729 0.013606 -0.0156847
-0.0292908 0.020787 -0.0247554
0.0489439 -0.0147399 0.0400622
0.0589595 -0.0188973 0.0440306
0.00774788 0.0784236 0.0236216
0.00661404 0.0536682 0.0171965
0 -0.0659514 -0.0162516
0.00188973 -0.0359048 -0.00736993
0.0194642 -0.0430858 -0.0228657
-0.00661404 -0.0568808 -0.00680301
-0.00793685 -0.0379835 -0.00113384
-0.0455424 0.0368497 -0.034771
-0.000566918 0.0464873 0.00699199
-0.013795 -0.0111494 -0.0145509
0.00453534 -0.0546131 0.0149288
0.00510226 -0.0706758 0.0134171
-0.00510226 -0.0185193 -0.0062361
-0.013984 0.0302356 -0.0158737
0.0289128 0.0279679 0.00718096
Vibration 9
-0.00548021 0.00774788 0.0421409
-0.00566918 0.0041574 0.0602823
-0.00321253 0.00264562 0.0364717
-0.0020787 0.00434637 0.00925966
-0.00170075 0.0062361 0.00510226
-0.00377945 0.00774788 0.0158737
0.00170075 0.00642507 -0.0120942
-0.00264562 0.00529123 -0.0100155
-0.00132281 0.00151178 -0.0362827
-0.00548021 0.00736993 0.0328812
-0.00831479 0.0260782 0.0130391
-0.00529123 0.0249444 -0.00604712
0.0020787 0.00453534 -0.00396842
0.00585815 -0.0143619 0.0156847
0.00113384 -0.0111494 0.0334482
0.00529123 0.00510226 -0.0260782
-0.00396842 -0.000377945 0.0264562
0.00642507 -0.0355268 0.00718096
0.00548021 -0.0334482 -0.00831479
-0.0062361 0.00585815 -0.00377945
-0.0170075 0.0389284 0.0143619
-0.0154958 0.0336371 0.0285349
-0.0075589 0.0124722 -0.020409
0.0171965 -0.020409 -0.0221098
0.00377945 0.0041574 -0.0198421
0.00321253 -0.0115273 -0.0124722
0.00434637 -0.0100155 -0.00680301
0.00377945 0.00510226 -0.0105825
0.00170075 0.0020787 -0.00831479
0.00491329 -0.0260782 -0.00170075
0.00491329 -0.0241885 -0.00151178
0.0041574 -0.00453534 -0.0075589
0.00359048 0.0100155 -0.0119053
0.000188973 -0.0160627 -0.0122832
0.00151178 -0.0149288 -0.0245664
0.00736993 0.00434637 -0.0340151
-0.00831479 0.00264562 0.0844708
0.00699199 0.0391173 -0.00170075
-0.0130391 0.0421409 0.0130391
-0.00888171 0.0394953 -0.0219208
0.0115273 -0.0309915 0.0170075
0.00226767 -0.0238105 0.0462983
0.0158737 -0.0644397 0.00453534
0.013795 -0.061794 -0.0234326
-0.0262672 0.0685971 0.0164406
-0.0247554 0.0557469 0.0404401
-0.00699199 0.0062361 0.00170075
-0.0179524 0.041385 -0.0306136
0.000944863 -0.00491329 -0.0459203
0.0188973 -0.0143619 -0.0417629
0.0120942 -0.0222988 0.00302356
0.0289128 -0.0419519 -0.0266451
0.00548021 -0.0400622 0.0020787
0.00548021 -0.0376055 0.00302356
0.00396842 -0.00151178 -0.00812582
0.00321253 0.0232436 -0.0156847
0.00151178 -0.0156847 -0.0260782
Vibration 10
-0.0171965 0.0096376 -0.00831479
-0.0171965 0.00132281 -0.0117163
-0.0113384 -0.00302356 -0.00888171
-0.00510226 0.000188973 -0.00226767
-0.00472431 0.00907068 -0.00491329
-0.0117163 0.0122832 -0.00793685
0.00453534 0.0124722 -0.00264562
-0.0113384 0.0183303 -0.0111494
-0.0109604 0.0239995 -0.0164406
-0.0109604 0.00604712 -0.00151178
-0.0221098 0.0168186 -0.0160627
0.00226767 0.0041574 -0.000944863
0.0357158 -0.0168186 0.0264562
0.0487549 -0.0281569 0.0417629
0.0245664 -0.0149288 0.027401
0.0610381 -0.0302356 0.0438416
-0.0119053 -0.00944863 -0.00888171
-0.0153068 -0.00812582 -0.0062361
-0.0147399 -0.00283459 -0.00113384
-0.0117163 0.00075589 0.00132281
-0.00925966 -0.00793685 -0.00340151
-0.0096376 -0.0126612 -0.00850377
-0.0107714 0.0170075 0.00888171
-0.0449755 0.0234326 -0.062172
0.0119053 0.00491329 0.00151178
0.00472431 -0.00377945 0.00340151
0.00283459 0.00340151 0.00075589
0.0041574 -0.00888171 0.00434637
0.00510226 -0.00434637 0.00226767
0.00151178 0.0173855 -0.00321253
0.00188973 0.0122832 -0.00132281
0.00377945 -0.00944863 0.00566918
0.00472431 -0.0194642 0.00831479
0.0100155 -0.00736993 0.00377945
-0.00359048 -0.0109604 0.00340151
0.0196532 0.00529123 0.00566918
-0.0224877 -0.00170075 -0.0156847
0.00982658 -0.00831479 0.00774788
-0.0502667 0.0349599 -0.0385504
-0.00604712 0.0113384 -0.0105825
0.0801244 -0.0489439 0.0676522
0.034393 -0.0224877 0.0377945
-0.0179524 -0.00925966 -0.00793685
-0.0168186 0 0.00132281
-0.0062361 -0.0096376 -0.00245664
-0.00793685 -0.0166296 -0.0107714
-0.0272121 0.0364717 -0.0359048
-0.0041574 -0.0255113 0.0211649
-0.000188973 0.0557469 0.0449755
-0.0714316 0.0425188 -0.0975099
0.00548021 0.0725655 -0.133793
-0.142296 -0.00604712 -0.0296687
0.000188973 0.0315584 -0.00736993
0.000944863 0.0239995 -0.00491329
0.00434637 -0.0173855 0.00850377
0.0062361 -0.0349599 0.0128501
-0.0117163 -0.00944863 0.00075589
Vibration 11
-0.00113384 0 -0.00661404
-0.00113384 -0.000377945 -0.0075589
-0.00113384 -0.000566918 -0.00340151
-0.000944863 -0.000566918 -0.00113384
-0.00075589 0 -0.00245664
-0.00113384 0 -0.00377945
-0.000188973 0.000188973 -0.00170075
-0.00132281 0.000188973 0.000377945
-0.00151178 0.000188973 0.00510226
-0.000188973 -0.000566918 -0.00453534
-0.00434637 -0.000377945 -0.00585815
-0.00132281 -0.00188973 -0.000377945
0.00510226 -0.00302356 0.00585815
0.00888171 -0.00283459 0.00680301
0.00642507 -0.00151178 0.00188973
0.00925966 -0.00548021 0.0130391
-0.00113384 0 -0.00170075
-0.000944863 0.00472431 0.000566918
-0.00170075 0.00566918 0.000566918
-0.00113384 0.00226767 -0.00113384
-0.000566918 -0.00245664 -0.00170075
-0.00132281 -0.00396842 -0.0020787
-0.000188973 -0.00302356 0.0120942
-0.0120942 0.00888171 -0.00699199
0.000188973 -0.000188973 0.000188973
0.000377945 0.00075589 0.000188973
0.000566918 -0.000188973 -0.000377945
0 -0.00075589 -0.000377945
-0.000188973 -0.00075589 -0.000188973
0.00075589 0.000944863 -0.000944863
0.000566918 0.0020787 -0.00170075
0.000188973 0.00170075 -0.00170075
0 0 -0.000944863
-0.000188973 -0.000566918 -0.000188973
0.00170075 0.0020787 0.00151178
0.000566918 -0.000188973 0.00188973
-0.00132281 -0.000566918 -0.0105825
-0.000566918 -0.0041574 -0.000944863
-0.00982658 0.00075589 -0.0109604
-0.00434637 -0.00226767 -0.000944863
0.0143619 -0.00396842 0.0119053
0.00982658 -0.00151178 0.00302356
-0.00151178 0.00812582 0.00113384
0.00075589 0.00944863 0.000188973
-0.00302356 -0.00453534 -0.00359048
-0.000944863 -0.0075589 -0.00340151
0.0427078 -0.153824 0.513439
0.0264562 0.485849 -0.0958091
-0.0667073 -0.357158 -0.339206
-0.0100155 0.00718096 -0.00377945
-0.00529123 0.0128501 -0.0317474
-0.0351489 0.0160627 0.000944863
0.000944863 0.00132281 -0.000944863
0.00075589 0.00321253 -0.00226767
0 0.00302356 -0.00245664
-0.000188973 -0.000377945 -0.00113384
0.00264562 0.00188973 0.0020787
Vibration 12
-0.00264562 -0.00774788 -0.0202201
-0.00226767 -0.00812582 -0.0170075
-0.000944863 -0.00869274 0.00736993
0.000944863 -0.0075589 0.0253223
0.00188973 -0.0062361 0.00699199
-0.000188973 -0.00585815 -0.00453534
0.00377945 -0.00699199 -0.00491329
-0.000188973 0.000566918 0.000566918
-0.000377945 0.00869274 0.00831479
-0.00642507 -0.00642507 -0.0264562
-0.0160627 -0.0102045 -0.0255113
-0.0126612 -0.0128501 -0.0115273
-0.000377945 -0.0111494 0.000944863
0.00170075 -0.00321253 -0.00604712
-0.000944863 -0.00245664 -0.0192752
0.0122832 -0.0196532 0.02759
-0.000566918 -0.00585815 0.00944863
0.00377945 -0.0154958 0.00264562
0.00359048 -0.0145509 -0.0041574
-0.00151178 -0.00188973 -0.00321253
-0.00604712 0.0111494 0.0041574
-0.00529123 0.00699199 0.0100155
-0.00245664 -0.00302356 -0.0134171
-0.0181414 0.00850377 0.00264562
0.00434637 -0.00718096 -0.0120942
-0.0107714 0.00642507 0.0020787
-0.000188973 -0.0291018 0.013984
0 0.0151178 0.0041574
0.00321253 -0.00888171 0.00774788
-0.00566918 -0.0557469 0.02759
-0.00925966 0.0020787 0.0194642
-0.00831479 0.0869274 -0.0041574
-0.00245664 0.0850377 -0.00812582
0.00566918 -0.0353379 0.0041574
0.0444086 0.0580146 0.0224877
0.00831479 -0.0075589 -0.034204
-0.00302356 -0.00850377 -0.0323143
0.00812582 -0.0166296 0.0115273
-0.0249444 -0.0124722 -0.034771
-0.0175745 -0.0162516 -0.00925966
0.00774788 0.000566918 0.000944863
0.00283459 0.00170075 -0.0219208
0.00831479 -0.0251334 0.00226767
0.00718096 -0.0238105 -0.0096376
-0.0100155 0.0230547 0.00491329
-0.00944863 0.0126612 0.0141729
-0.00113384 0.00075589 -0.0306136
-0.0105825 -0.0171965 -0.0126612
0.00340151 0.00642507 -0.00661404
-0.0134171 0.00188973 0.0192752
-0.0100155 0.0107714 -0.0408181
-0.0508336 0.0319364 0.0143619
-0.00736993 -0.114517 0.041574
-0.013606 -0.0143619 0.0287238
-0.0115273 0.149477 -0.0173855
0.000188973 0.139462 -0.0211649
0.0976988 0.0504557 0.0440306
Vibration 13
-0.00151178 0.00151178 0.0255113
-0.00113384 -0.00264562 0.0158737
0.00377945 -0.00548021 -0.0190862
0.00793685 -0.00283459 -0.0370386
0.00661404 0.000377945 -0.00944863
0.00245664 0.00264562 0.00699199
0.00680301 0.000944863 0.00170075
0.00340151 0.0122832 -0.00321253
0.00453534 0.0272121 -0.0198421
-0.000566918 0.000944863 0.0340151
0.00736993 0.00736993 0.0294797
0.00661404 0.00869274 0.013606
-0.00226767 0.00170075 0.00340151
-0.00245664 -0.0096376 0.0143619
-0.00264562 -0.00831479 0.0285349
-0.0117163 0.00907068 -0.027779
0.00377945 -0.0171965 -0.0251334
-0.00396842 -0.0219208 -0.020787
-0.00302356 -0.0175745 -0.00831479
0.00718096 -0.00850377 -0.000944863
0.0145509 -0.0217318 -0.0102045
0.0128501 -0.0247554 -0.0221098
0.0102045 0.0224877 0.0224877
0.0119053 -0.0226767 -0.0124722
0.0075589 0.00132281 -0.00793685
-0.020409 -0.0102045 -0.0164406
-0.0211649 -0.0113384 -0.0238105
-0.0062361 -0.00812582 -0.0173855
0.0062361 -0.0020787 -0.0270231
-0.034393 -0.00075589 -0.0171965
-0.0336371 0.0102045 -0.0041574
-0.0188973 0.0100155 0.00283459
-0.00529123 0.000566918 -0.00434637
0.0122832 0.0154958 -0.020409
0.0124722 0.0398732 0.112439
0.00642507 0.000377945 0.00793685
-0.00453534 -0.00453534 0.0332592
0.0062361 -0.0338261 -0.0245664
0.0134171 0.0128501 0.0370386
0.0105825 0.0151178 0.00812582
-0.00453534 -0.0179524 0.00982658
-0.0062361 -0.0145509 0.0334482
-0.0115273 -0.0258892 -0.0255113
-0.00982658 -0.0173855 -0.00340151
0.0217318 -0.0253223 -0.0075589
0.0200311 -0.0304246 -0.0283459
-0.0147399 0.0298577 0.0394953
0.0325033 0.0393063 0.0255113
0.0149288 0.0260782 0.0232436
0.00566918 -0.0120942 -0.0394953
0.00699199 -0.020787 0.0321253
0.0385504 -0.0563138 -0.0222988
-0.0449755 -0.000377945 -0.0221098
-0.0442196 0.0194642 0.00075589
-0.0179524 0.0183303 0.013795
0.00491329 0.00245664 0.000566918
0.0362827 0.0589595 0.170831
Vibration 14
0.000944863 0.00736993 -0.0109604
-0.000377945 0.00453534 0.00718096
-0.00377945 0.00604712 0.0171965
-0.00736993 0.00377945 0.00396842
-0.00718096 0.00793685 -0.0168186
-0.00302356 0.00604712 -0.013795
0.00264562 0.00944863 -0.0370386
-0.00491329 -0.0272121 0.00188973
-0.0075589 -0.0852266 0.0287238
-0.00226767 0.00925966 -0.0181414
-0.00472431 0.00850377 -0.0175745
-0.00283459 0.00699199 -0.0102045
0.00226767 0.00925966 -0.00491329
-0.00529123 0.0164406 -0.0145509
-0.00491329 0.0153068 -0.0190862
0.0179524 0.000188973 0.0192752
-0.00359048 0.0141729 0.0241885
0.0041574 0.0187083 0.0196532
0.00359048 0.0170075 0.0075589
-0.00699199 0.0103935 0.000566918
-0.0147399 0.0215429 0.0096376
-0.0130391 0.0215429 0.020976
-0.0096376 -0.0154958 -0.0222988
0.00075589 0.0190862 0.0062361
0.00982658 0.00453534 -0.0389284
0.00982658 -0.0128501 0.0187083
-0.000566918 0.0103935 -0.0041574
-0.0020787 -0.00510226 -0.00075589
0.00188973 -0.0020787 -0.00529123
0.00226767 0.0251334 -0.0105825
0.00396842 -0.00226767 -0.00472431
0.00340151 -0.0417629 0.00642507
0 -0.0364717 0.0075589
0.0173855 -0.0291018 -0.0041574
-0.000566918 -0.00718096 0.101478
0.0151178 0.00396842 -0.069164
0 0.00491329 0.0134171
0.0258892 0.0406291 0.0215429
-0.0075589 0.0075589 -0.020598
-0.00302356 0.00377945 -0.00699199
-0.00888171 0.0217318 -0.0168186
-0.00529123 0.0183303 -0.0221098
0.0119053 0.020976 0.0239995
0.0105825 0.0170075 0.00226767
-0.0221098 0.0260782 0.00699199
-0.020598 0.0262672 0.0272121
0.0122832 -0.0222988 -0.0362827
-0.0309915 -0.0279679 -0.0262672
-0.0124722 -0.0200311 -0.0255113
0.0234326 0.0020787 0.0391173
-0.00510226 0.00321253 -0.0423299
-0.0260782 0.0638727 0.0166296
0.00283459 0.0525344 -0.0170075
0.00548021 0.00434637 -0.00831479
0.00510226 -0.0740773 0.0132281
0.000566918 -0.0610381 0.013795
-0.0166296 0.00718096 0.123021
Vibration 15
0.00831479 -0.0149288 -0.0113384
0.0103935 -0.00944863 0.0228657
0.0100155 -0.00869274 0.0302356
0.00566918 -0.00850377 -0.00680301
0.0100155 -0.0170075 -0.0251334
0.00907068 -0.0168186 -0.0228657
-0.00340151 -0.0221098 -0.0330702
0.0102045 0.0364717 -0.00585815
0.0109604 0.135115 0.0219208
0.00736993 -0.0153068 -0.0171965
-0.00585815 -0.0168186 -0.0198421
-0.0113384 -0.0149288 -0.0132281
-0.000944863 -0.0126612 -0.00245664
0.0109604 -0.00944863 -0.00151178
0.0132281 -0.0111494 -0.0102045
-0.00453534 -0.0128501 0.0111494
0.0117163 0.00642507 0.0430858
0.0298577 0.0194642 0.034393
0.0292908 0.0226767 0.0130391
0.0109604 0.0115273 0.000944863
-0.00604712 0.0236216 0.0168186
-0.00359048 0.0192752 0.0377945
0.00661404 -0.0238105 -0.0391173
-0.0122832 0.00529123 0.00925966
-0.0149288 -0.0122832 -0.00396842
-0.00604712 -0.0020787 -0.00793685
-0.00925966 0.00642507 -0.013795
-0.0075589 -0.00170075 -0.0111494