[Molden Format]
[FREQ]
10.7
20.7
25.2
30.3
31.2
32.0
39.1
41.7
47.7
53.6
77.1
90.1
94.7
112.3
115.5
125.1
135.7
137.2
143.8
153.1
176.5
181.3
207.6
226.5
232.9
249.9
251.2
266.2
290.1
299.0
316.9
320.7
330.6
335.1
350.1
355.8
364.8
397.6
410.4
445.1
452.9
487.2
488.8
507.3
526.1
541.2
551.9
564.0
564.8
582.2
610.6
615.6
630.4
638.8
647.2
657.5
676.6
679.8
705.0
720.8
727.7
756.7
763.4
782.3
799.5
807.4
812.6
829.6
848.1
875.1
880.1
882.3
895.7
900.9
936.8
965.6
968.6
987.0
1003.2
1008.6
1009.1
1015.7
1016.6
1023.9
1032.4
1044.5
1048.7
1070.7
1075.2
1081.2
1105.3
1125.6
1154.9
1177.8
1182.1
1182.9
1190.2
1203.0
1208.1
1237.6
1252.4
1260.3
1268.2
1269.9
1276.8
1283.1
1286.4
1295.5
1302.2
1319.1
1328.2
1330.0
1334.6
1340.3
1342.9
1348.1
1351.3
1362.8
1366.7
1382.7
1394.2
1428.3
1455.4
1500.4
1508.1
1513.5
1521.9
1529.4
1535.5
1559.0
1568.9
1600.6
1608.3
1647.7
1690.8
1694.6
1699.4
1700.2
1700.6
1708.5
1710.9
1813.8
1836.1
2452.3
2651.4
2653.7
2668.4
2672.8
2689.2
2732.1
2735.2
2736.3
2744.5
2745.0
2746.5
2749.3
2751.1
2757.1
2761.6
2762.6
2765.1
2767.2
2767.9
2769.2
2779.6
       
[FR-COORD]
C -2.51919 -2.97462 0.866061
C 0.114328 -2.97462 0.866061
C 1.41295 -0.659703 0.866061
N 0.173477 1.56186 0.865683
C -2.38767 1.58416 0.808047
C -3.84238 -0.663483 0.830913
N -3.45442 3.98978 0.653278
C -6.50633 -0.580524 0.760237
N -8.69274 -0.495675 0.700521
C -3.88509 -5.38175 0.871164
C -3.47218 -7.11217 -1.09283
C -4.75115 -9.39345 -1.13043
C -6.4502 -9.94147 0.839227
C -6.86915 -8.24828 2.81758
C -5.57583 -5.95793 2.81153
O -7.56476 -12.2333 0.575422
C 4.18537 -0.485093 0.812771
C 5.44732 1.04861 2.55019
C 8.06346 1.2835 2.42754
C 9.41972 0.0215429 0.54821
C 8.14547 -1.51027 -1.18958
C 5.5352 -1.77162 -1.05617
C 12.2148 0.31275 0.359237
C -9.39477 -12.9354 2.41356
C -1.97136 6.18904 0.529879
C 0.86077 6.03352 1.16672
C 2.73765 6.08586 -0.905179
C 2.2586 5.34868 -3.38866
C -0.199744 4.33673 -4.3322
C 5.18238 6.82871 -0.207303
C 7.12786 6.82966 -1.97439
C 6.65184 6.05468 -4.44766
C 4.22713 5.31278 -5.14686
O -2.02012 5.8778 -4.61887
O 1.42996 6.10703 3.36768
O -2.99144 8.16985 0.0351489
H 1.16199 -4.74132 0.895541
H -1.95284 7.71235 -4.22543
H -2.15089 -6.64371 -2.6065
H -4.47601 -10.7565 -2.64278
H -8.17968 -8.67498 4.33541
H -5.88933 -4.60715 4.33994
H 4.3715 2.08701 3.9792
H 9.04423 2.47119 3.78947
H 9.20089 -2.48915 -2.65563
H 4.54082 -2.94438 -2.42641
H 12.7505 1.2646 -1.41049
H 13.1767 -1.53011 0.376244
H 13.017 1.42712 1.91562
H -10.0067 -14.7979 1.72834
H -10.9837 -11.6103 2.41961
H -8.53325 -13.1015 4.2859
H 5.55844 7.39204 1.74592
H 9.02099 7.41264 -1.42259
H 8.17741 6.0218 -5.82735
H 3.86525 4.68104 -7.07438
H -5.35737 4.15778 0.371142

[FR-NORM-COORD]
Vibration 1
-0.00604712 -0.0062361 -0.00888171
-0.00585815 -0.0062361 -0.0119053
-0.00604712 -0.00604712 -0.0185193
-0.00585815 -0.0062361 -0.0217318
-0.00604712 -0.0062361 -0.0190862
-0.00604712 -0.0062361 -0.0141729
-0.00566918 -0.0062361 -0.020787
-0.00604712 -0.00604712 -0.0132281
-0.00604712 -0.00585815 -0.0132281
-0.00604712 -0.00604712 0.00151178
-0.00680301 -0.0151178 0.00925966
-0.00661404 -0.0154958 0.020409
-0.00585815 -0.00642507 0.0236216
-0.00510226 0.00264562 0.0160627
-0.00529123 0.00264562 0.00491329
-0.00548021 -0.00793685 0.0349599
-0.00604712 -0.00566918 -0.0221098
-0.00359048 -0.0132281 -0.0173855
-0.00396842 -0.0115273 -0.0211649
-0.00699199 -0.0020787 -0.0298577
-0.0096376 0.00529123 -0.034393
-0.00925966 0.00340151 -0.0306136
-0.00774788 0.00188973 -0.034771
-0.00396842 0.000188973 0.0396842
-0.00472431 -0.00642507 -0.0126612
-0.00907068 -0.00718096 0.0062361
0.00585815 0.0103935 0.020409
0.0283459 0.0158737 0.0145509
0.0408181 0.00491329 -0.00642507
-0.00359048 0.0224877 0.0408181
0.00925966 0.0402512 0.054991
0.0319364 0.0457314 0.0489439
0.041385 0.0334482 0.0287238
0.034204 -0.00396842 -0.0128501
-0.0247554 -0.0215429 0.0109604
-0.00170075 -0.00604712 -0.0175745
-0.00566918 -0.00604712 -0.00907068
0.0217318 -0.00491329 -0.00604712
-0.00736993 -0.0221098 0.00661404
-0.00718096 -0.0222988 0.0266451
-0.00453534 0.0096376 0.0185193
-0.00472431 0.0096376 -0.00113384
-0.00132281 -0.020409 -0.0105825
-0.00188973 -0.0173855 -0.0175745
-0.0120942 0.0128501 -0.041196
-0.0115273 0.00925966 -0.0340151
-0.0158737 0.0376055 -0.0181414
-0.00661404 0.00226767 -0.075589
-0.0020787 -0.0285349 -0.0158737
-0.00340151 -0.00359048 0.0491329
-0.00453534 -0.000566918 0.034204
-0.00264562 0.0096376 0.0398732
-0.0211649 0.0181414 0.0455424
0.00170075 0.0498888 0.0706758
0.0419519 0.0599043 0.0599043
0.0593374 0.0376055 0.0239995
-0.00453534 -0.00604712 -0.0285349
Vibration 2
-0.00170075 -0.000944863 -0.0188973
-0.00170075 -0.00151178 -0.0162516
-0.000944863 -0.0020787 -0.0149288
0.000188973 -0.00151178 -0.0156847
0.000188973 -0.000566918 -0.0185193
-0.000566918 -0.000377945 -0.0238105
0.000377945 0 -0.0105825
-0.000377945 0.00075589 -0.0321253
-0.000188973 0.00151178 -0.0398732
-0.00075589 -0.00132281 -0.0100155
0.0100155 -0.0164406 0.00548021
0.0160627 -0.0200311 0.0198421
0.0113384 -0.00869274 0.0188973
-0.00151178 0.0075589 0.00245664
-0.00736993 0.0107714 -0.0120942
0.020598 -0.0151178 0.0359048
-0.000566918 -0.00529123 -0.00718096
-0.00340151 -0.0158737 0.00396842
-0.0020787 -0.0238105 0.0162516
0.0020787 -0.020598 0.0170075
0.00434637 -0.00869274 0.00453534
0.00302356 -0.000944863 -0.0075589
0.00453534 -0.0340151 0.0332592
0.020409 -0.00718096 0.0387394
-0.000566918 0.00151178 0.00812582
0.000377945 -0.00321253 0.00264562
-0.00340151 0.000566918 -0.000377945
-0.0164406 0.0351489 -0.00812582
-0.027779 0.0710537 -0.0171965
0.00604712 -0.034204 0.00340151
0.00264562 -0.034582 -0.000377945
-0.0107714 0.000188973 -0.00869274
-0.0202201 0.0351489 -0.0124722
-0.013606 0.0910848 0.00302356
0.00377945 -0.0120942 0.00226767
-0.00132281 0.00566918 0.0260782
-0.0020787 -0.00170075 -0.0130391
0.00188973 0.0852266 0.0279679
0.0141729 -0.0257003 0.0062361
0.0251334 -0.0319364 0.0323143
-0.00642507 0.0171965 0.000944863
-0.0166296 0.0226767 -0.0245664
-0.0062361 -0.0185193 0.00377945
-0.00396842 -0.0328812 0.0257003
0.0075589 -0.00585815 0.00491329
0.00510226 0.00812582 -0.0166296
0.0270231 -0.104502 0.00245664
-0.00264562 -0.0374166 0.114706
-0.00774788 0.0230547 -0.00132281
0.0315584 -0.0170075 0.05518
0.0134171 -0.0153068 0.0224877
0.0170075 0.0153068 0.0423299
0.0160627 -0.0612271 0.00925966
0.0102045 -0.062172 0.00302356
-0.013795 0 -0.0120942
-0.0309915 0.062361 -0.0194642
0.000566918 0.00132281 -0.0109604
Vibration 3
-0.00699199 0.00661404 -0.0100155
-0.00736993 0.00434637 -0.0153068
-0.0062361 0.00396842 -0.0100155
-0.00529123 0.00434637 -0.00718096
-0.00548021 0.00585815 -0.00510226
-0.00661404 0.00661404 -0.00170075
-0.00377945 0.00661404 -0.00642507
-0.00699199 0.00529123 0.0124722
-0.00736993 0.00283459 0.0255113
-0.00812582 0.00680301 -0.0111494
-0.0563138 0.0353379 -0.0461093
-0.0531013 0.0334482 -0.0434637
0.00113384 0.00283459 -0.00529123
0.0476211 -0.0238105 0.027401
0.0417629 -0.020409 0.0238105
0.00170075 0.00245664 -0.00529123
-0.00604712 0.00170075 -0.00453534
-0.00888171 -0.00359048 0.0020787
-0.00793685 -0.00869274 0.0113384
-0.00434637 -0.00831479 0.013795
-0.00170075 -0.0020787 0.0062361
-0.00264562 0.00302356 -0.00283459
-0.00245664 -0.0181414 0.0262672
0.0599043 -0.0315584 0.0396842
-0.00170075 0.00510226 -0.00907068
-0.00264562 0.00321253 -0.00472431
0.00151178 0 -0.000944863
0.00642507 -0.00188973 -0.00132281
0.00736993 -0.000188973 -0.00585815
0.000944863 -0.0020787 0.00396842
0.00510226 -0.00642507 0.00850377
0.00982658 -0.00850377 0.00812582
0.0103935 -0.00585815 0.00321253
0.00907068 0.00113384 -0.00925966
-0.00680301 0.00377945 -0.00359048
0.00075589 0.00529123 -0.0130391
-0.00888171 0.00340151 -0.0230547
0.0096376 0.00113384 -0.00925966
-0.096376 0.0587705 -0.0736993
-0.0907068 0.0548021 -0.0695419
0.0876833 -0.0468652 0.055369
0.0772898 -0.0400622 0.048188
-0.0115273 -0.00396842 0.000566918
-0.0100155 -0.0134171 0.0168186
0.00132281 -0.00151178 0.00793685
-0.000566918 0.0075589 -0.00831479
0.0156847 -0.0833369 -0.00302356
-0.00718096 -0.0200311 0.101289
-0.013606 0.0360938 -0.00699199
0.0495108 -0.0257003 0.0330702
0.0531013 -0.0400622 0.104313
0.116029 -0.0517785 0.0120942
-0.00302356 -0.000566918 0.0041574
0.00453534 -0.00850377 0.0122832
0.0130391 -0.0119053 0.0119053
0.0141729 -0.00736993 0.00302356
-0.00377945 0.00774788 -0.0062361
Vibration 4
-0.013984 0.0143619 0.0020787
-0.013606 0.0122832 0.00132281
-0.0117163 0.0107714 0.00377945
-0.00925966 0.0119053 0.00850377
-0.00925966 0.0143619 0.00774788
-0.0117163 0.0156847 0.00604712
-0.00510226 0.0160627 0.00604712
-0.0115273 0.0198421 0.00680301
-0.0115273 0.0239995 0.00774788
-0.0103935 0.0124722 -0.00283459
0.0181414 0.00472431 0.00944863
0.0340151 -0.00377945 0.00944863
0.0200311 -0.00510226 -0.00302356
-0.0130391 0.00453534 -0.0183303
-0.027779 0.0130391 -0.0181414
0.0427078 -0.0166296 0.00170075
-0.0113384 0.00680301 -0.00245664
-0.0020787 -0.0179524 0.0122832
-0.00188973 -0.0226767 0.00566918
-0.0119053 -0.00132281 -0.0158737
-0.0217318 0.0239995 -0.0311805
-0.0217318 0.027779 -0.0243775
-0.0113384 -0.0096376 -0.020598
0.0377945 -0.0245664 -0.0062361
0.000377945 0.0124722 -0.000944863
-0.000377945 0.00774788 0.0020787
0.00321253 -0.00699199 0.00472431
0.0062361 -0.0194642 0.00774788
0.00472431 -0.0162516 0.00850377
0.0041574 -0.0107714 0.00566918
0.00812582 -0.027779 0.00982658
0.0111494 -0.041196 0.013606
0.0100155 -0.0366607 0.0124722
0.00925966 -0.0122832 0.000944863
-0.00302356 0.0156847 0.00245664
0.00510226 0.0132281 -0.00736993
-0.0149288 0.0115273 -0.00170075
0.0141729 -0.0109604 -0.00642507
0.0292908 0.00529123 0.0190862
0.0576366 -0.0103935 0.0194642
-0.0264562 0.00529123 -0.0298577
-0.0525344 0.0194642 -0.0287238
0.00529123 -0.0332592 0.0285349
0.00585815 -0.0427078 0.0173855
-0.0292908 0.0410071 -0.0478101
-0.0296687 0.0478101 -0.0357158
-0.00321253 -0.0803134 -0.0557469
-0.0154958 -0.0115273 0.054991
-0.013984 0.0496998 -0.061794
0.0646286 -0.0366607 0.00321253
0.0224877 -0.0428968 -0.02759
0.0260782 -0.000566918 0.00132281
0.00170075 -0.000566918 0.00321253
0.00888171 -0.0308025 0.0107714
0.0141729 -0.05518 0.0173855
0.0120942 -0.0470542 0.0154958
-0.00472431 0.0194642 0.00642507
Vibration 5
0.00642507 -0.00642507 -0.00434637
0.00642507 -0.00491329 -0.00529123
0.00377945 -0.00359048 -0.00188973
0.0020787 -0.00491329 -0.000566918
0.0020787 -0.0062361 -0.00321253
0.00434637 -0.0075589 -0.00472431
0.00188973 -0.00642507 -0.00302356
0.0041574 -0.0102045 -0.00642507
0.0041574 -0.0128501 -0.00812582
0.00453534 -0.00548021 -0.000566918
-0.0109604 -0.00321253 -0.00548021
-0.0194642 0.00132281 -0.00321253
-0.0115273 0.00377945 0.0041574
0.00642507 0.000377945 0.0109604
0.0141729 -0.0041574 0.00850377
-0.0236216 0.0096376 0.0041574
0.00359048 0.00377945 0.00151178
-0.00113384 -0.034582 0.0385504
-0.00226767 -0.0202201 0.0408181
0.000188973 0.034204 0.00604712
0.00453534 0.0723765 -0.0306136
0.00585815 0.0563138 -0.0326923
-0.0020787 0.0566918 0.00604712
-0.0202201 0.0153068 0.00982658
0.00302356 -0.00680301 -0.00075589
0.00321253 -0.00925966 -0.00132281
0.00283459 -0.0151178 -0.00188973
-0.00113384 -0.00793685 -0.00321253
-0.00548021 0.00453534 -0.00510226
0.00680301 -0.0287238 -0.00113384
0.0062361 -0.034204 -0.00170075
0.00188973 -0.0266451 -0.00321253
-0.00188973 -0.013606 -0.00396842
0.000566918 0.0120942 -0.00188973
0.00340151 -0.00661404 -0.00151178
0.00377945 -0.00585815 0.00170075
0.00812582 -0.00396842 -0.00812582
0.00736993 0.0107714 0.00283459
-0.0170075 -0.00491329 -0.0113384
-0.0323143 0.00340151 -0.00736993
0.013984 0.00132281 0.0177634
0.027779 -0.0062361 0.0130391
-0.00377945 -0.0740773 0.0648176
-0.00529123 -0.0504557 0.0695419
0.00642507 0.115084 -0.0578256
0.00869274 0.0863605 -0.0602823
-0.0188973 0.164217 0.0585815
0.00774788 0.0610381 -0.109415
0.00264562 -0.0311805 0.0667073
-0.034393 0.0211649 0.00680301
-0.0122832 0.0249444 0.020409
-0.0132281 0.00453534 0.00548021
0.0103935 -0.0353379 0.000188973
0.00925966 -0.0445975 -0.000944863
0.00113384 -0.0308025 -0.00377945
-0.00548021 -0.00793685 -0.00510226
0.0020787 -0.00604712 -0.00302356
Vibration 6
0.0096376 -0.00869274 0.00340151
0.00944863 -0.00566918 -0.000377945
0.00642507 -0.00377945 -0.00264562
0.00359048 -0.00529123 -0.00321253
0.00359048 -0.00831479 -0.000566918
0.00661404 -0.0102045 0.00340151
0.000566918 -0.00982658 -0.00151178
0.00642507 -0.0134171 0.00793685
0.0062361 -0.0160627 0.0117163
0.00888171 -0.00831479 0.0062361
0.00359048 -0.00925966 0.00604712
-0.00661404 -0.00359048 0.00359048
-0.0117163 0.00321253 0.00113384
-0.00264562 0.0020787 0.0041574
0.00774788 -0.00396842 0.00680301
-0.0260782 0.0109604 -0.0041574
0.00604712 0.00226767 -0.00340151
0.00283459 -0.00472431 0.00491329
0.0020787 0.00434637 0.0041574
0.00396842 0.020787 -0.00529123
0.00718096 0.0268341 -0.0132281
0.00831479 0.0175745 -0.0124722
0.00491329 0.0164406 0.00113384
-0.0400622 0.0239995 -0.0128501
-0.0020787 -0.00812582 -0.00245664
-0.00226767 -0.00453534 -0.000944863
-0.000944863 -0.00075589 0.000377945
0.00170075 0.000377945 -0.000377945
0.00434637 -0.00359048 -0.00245664
-0.00226767 0.00170075 0.00283459
-0.000944863 0.00548021 0.0041574
0.00151178 0.00718096 0.00321253
0.00302356 0.00472431 0.00075589
0.00132281 -0.00699199 -0.00264562
-0.00396842 -0.00510226 -0.000377945
-0.00453534 -0.0096376 -0.00377945
0.0119053 -0.0041574 -0.00113384
-0.00245664 -0.00718096 -0.00132281
0.00661404 -0.013984 0.00736993
-0.0115273 -0.00359048 0.00283459
-0.0041574 0.00585815 0.00396842
0.0141729 -0.00453534 0.00850377
0.000944863 -0.0164406 0.0117163
-0.00075589 -0.00170075 0.0113384
0.0096376 0.0387394 -0.0194642
0.0105825 0.0230547 -0.0187083
0.0447865 -0.302356 -0.156847
0.0115273 0.0219208 0.358859
-0.0376055 0.301978 -0.181603
-0.0548021 0.0311805 -0.0194642
-0.027779 0.0387394 -0.0160627
-0.0489439 0.0117163 -0.0100155
-0.00434637 0.000377945 0.00359048
-0.00188973 0.00642507 0.00604712
0.00264562 0.0102045 0.00434637
0.00510226 0.00604712 0
0.000188973 -0.0122832 -0.00151178
Vibration 7
0.00283459 -0.00302356 0.0255113
0.00302356 0.00132281 0.00925966
-0.000188973 0.00302356 -0.00453534
-0.00245664 0.00170075 -0.0149288
-0.00302356 -0.00264562 0.00170075
0 -0.00453534 0.0340151
-0.00793685 -0.00604712 -0.0162516
-0.00132281 -0.0062361 0.0810692
-0.00264562 -0.00680301 0.126045
0.00812582 -0.00585815 0.0230547
0.0211649 -0.00188973 0.0217318
0.0215429 -0.00151178 0.00699199
0.00718096 -0.00566918 -0.00642507
-0.0020787 -0.0128501 -0.00245664
-0.00113384 -0.0130391 0.0126612
0.00453534 -0.00245664 -0.0236216
-0.000188973 0.00226767 -0.0062361
0.00151178 -0.00944863 0.00283459
0.00283459 -0.0200311 0.0105825
0.00226767 -0.0181414 0.00869274
0 -0.00245664 -0.00321253
-0.00151178 0.00774788 -0.0107714
0.00434637 -0.0309915 0.0190862
-0.0221098 0.00075589 -0.0489439
-0.0128501 -0.00396842 -0.0321253
-0.0145509 0.00642507 -0.0217318
-0.00453534 0.00585815 -0.0122832
0.00340151 0.0251334 -0.0194642
0.0041574 0.0430858 -0.0408181
-0.00321253 -0.0147399 0.00529123
0.00604712 -0.0151178 0.0154958
0.013606 0.00566918 0.0075589
0.0124722 0.0258892 -0.00982658
0.0113384 0.0512116 -0.0394953
-0.0255113 0.0120942 -0.0190862
-0.0160627 -0.00944863 -0.0478101
0.00604712 0.00302356 0.0075589
0.0128501 0.0470542 -0.0200311
0.0308025 0.0020787 0.0311805
0.0311805 0.00264562 0.00510226
-0.0103935 -0.0177634 -0.0109604
-0.00888171 -0.0187083 0.0162516
0.0020787 -0.0117163 0.00472431
0.00453534 -0.0306136 0.0183303
-0.00075589 0.00113384 -0.0062361
-0.00321253 0.0188973 -0.0190862
0.00982658 0.0230547 0.0496998
-0.00642507 -0.0370386 -0.0404401
0.0111494 -0.0861715 0.05518
-0.0253223 0.0075589 -0.0648176
-0.013984 0.0103935 -0.061983
-0.0455424 -0.0130391 -0.0394953
-0.0096376 -0.0302356 0.0109604
0.00699199 -0.0315584 0.0294797
0.0202201 0.00585815 0.0149288
0.0183303 0.0417629 -0.0160627
-0.00869274 -0.0119053 -0.0141729
Vibration 8
-0.00718096 0.00170075 -0.0132281
-0.00680301 -0.00188973 -0.0232436
-0.00340151 -0.00396842 -0.0177634
-0.000377945 -0.00245664 -0.0117163
-0.000377945 0.00151178 -0.00245664
-0.00396842 0.00377945 -0.000188973
0.00491329 0.00453534 0.00699199
-0.0041574 0.0105825 0.0175745
-0.00434637 0.0179524 0.0336371
-0.00831479 0.00245664 -0.0111494
0.00226767 -0.00680301 -0.000944863
0.00680301 -0.00944863 0.00529123
-0.000377945 -0.00283459 0.00113384
-0.013795 0.00774788 -0.0107714
-0.0175745 0.00982658 -0.0168186
0.00774788 -0.0075589 0.0100155
-0.00302356 -0.00566918 -0.00869274
-0.00982658 -0.0325033 0.0200311
-0.00850377 -0.0374166 0.0389284
-0.000944863 -0.0141729 0.0289128
0.00510226 0.0166296 -0.00264562
0.00359048 0.020598 -0.0215429
0.00170075 -0.0230547 0.0534792
0.00642507 -0.00472431 0.0100155
0.0124722 -0.000566918 0.00510226
0.0141729 -0.0113384 -0.00321253
0.00604712 0.00548021 -0.0103935
0.00188973 0.00302356 -0.00888171
0.00944863 -0.0291018 0.0062361
0.00132281 0.0300466 -0.020976
-0.00812582 0.0570697 -0.0315584
-0.0128501 0.0599043 -0.0315584
-0.0075589 0.0317474 -0.0200311
-0.00925966 -0.0500777 0.00831479
0.0221098 -0.0266451 -0.00491329
0.0179524 0.00321253 0.00888171
-0.00888171 -0.00321253 -0.0328812
-0.0255113 -0.0468652 -0.00302356
0.00774788 -0.0122832 0.0020787
0.0160627 -0.0168186 0.013606
-0.020787 0.0141729 -0.0151178
-0.0270231 0.0170075 -0.0249444
-0.0154958 -0.0498888 0.0281569
-0.013606 -0.0595264 0.061794
0.0109604 0.0370386 -0.0119053
0.00812582 0.0442196 -0.0449755
0.020598 -0.0175745 0.062172
-0.00566918 -0.0270231 0.0538572
-0.00736993 -0.0326923 0.0650066
0.0175745 -0.0122832 0.020787
-0.000188973 -0.0126612 -0.00321253
0.00226767 0.0120942 0.0134171
0.00529123 0.0287238 -0.0213539
-0.0117163 0.0765339 -0.0398732
-0.020409 0.0839038 -0.0404401
-0.0103935 0.0323143 -0.0196532
0.00472431 0.0105825 0.0126612
Vibration 9
-0.0179524 -0.00340151 0
-0.0171965 -0.0115273 -0.000944863
-0.00982658 -0.0160627 0
-0.00472431 -0.0126612 -0.00548021
-0.0041574 -0.00396842 -0.00113384
-0.0113384 0.000566918 0.00529123
0.00774788 0.00132281 -0.000944863
-0.0113384 0.0113384 0.0213539
-0.0113384 0.0219208 0.0376055
-0.0215429 -0.00151178 -0.00396842
-0.0117163 -0.00377945 -0.000377945
-0.00453534 -0.0075589 -0.000377945
-0.00793685 -0.0102045 -0.00377945
-0.0226767 -0.00566918 -0.0109604
-0.0292908 -0.00170075 -0.0107714
0.00548021 -0.0170075 -0.000188973
-0.0102045 -0.0122832 0.00793685
-0.0243775 0.0160627 -0.00585815
-0.0272121 0.0430858 -0.00982658
-0.0153068 0.0400622 0.000944863
0.000566918 0.00264562 0.0221098
0.00302356 -0.0232436 0.0255113
-0.0202201 0.0784236 -0.0109604
0.0170075 -0.0294797 0.00642507
0.0213539 -0.0075589 0.00113384
0.0217318 -0.0253223 -0.00264562
0.0194642 -0.0154958 -0.00472431
0.0149288 0.00302356 -0.00925966
0.0115273 0.013984 -0.0126612
0.0213539 -0.0226767 -0.00359048
0.0181414 -0.0100155 -0.00718096
0.0132281 0.00869274 -0.0122832
0.0117163 0.0147399 -0.0130391
0.0158737 0.0211649 -0.0020787
0.0251334 -0.0417629 -0.00283459
0.0334482 -0.000188973 0.00566918
-0.0228657 -0.0147399 -0.00113384
0.0215429 0.0187083 0.00925966
-0.00831479 -0.00264562 0.00283459
0.00453534 -0.00944863 0.00283459
-0.0283459 -0.00548021 -0.0158737
-0.0398732 0.00075589 -0.0151178
-0.034204 0.0194642 -0.0153068
-0.0393063 0.0678412 -0.0226767
0.0105825 -0.00434637 0.0340151
0.0154958 -0.0502667 0.0398732
-0.0393063 0.0591484 -0.0272121
0.00718096 0.0931635 0.0149288
-0.0326923 0.114517 -0.0304246
0.034771 -0.0383614 0.0143619
0.00340151 -0.0459203 0.00491329
0.0224877 -0.013984 0.00529123
0.0253223 -0.0374166 -0.000188973
0.0192752 -0.0143619 -0.00642507
0.0105825 0.0188973 -0.0154958
0.00774788 0.0292908 -0.0171965
0.00869274 0.0120942 0.00113384
Vibration 10
-0.0062361 -0.000188973 0.0396842
-0.00642507 -0.00377945 0.0625499
-0.00377945 -0.00529123 0.0462983
0 -0.00377945 0.0245664
0 -0.00075589 0.0126612
-0.00283459 0.000944863 0.0126612
0.00472431 0 -0.00510226
-0.0020787 0.000944863 -0.0222988
-0.00113384 -0.00075589 -0.05518
-0.00736993 0.000188973 0.0289128
-0.00869274 0.0168186 0.013795
-0.00585815 0.0158737 -0.00283459
-0.000944863 -0.00264562 -0.00359048
-0.000188973 -0.0190862 0.0105825
-0.00377945 -0.0164406 0.0266451
0.00321253 -0.00264562 -0.0211649
-0.00359048 -0.0102045 0.0353379
0.0122832 -0.0264562 0.0374166
0.0117163 -0.0272121 0.0151178
-0.00680301 -0.0100155 -0.0096376
-0.0232436 0.0041574 -0.0102045
-0.0217318 0.00359048 0.0126612
-0.00888171 -0.00793685 -0.0368497
0.013984 -0.0264562 -0.0198421
0.00907068 -0.00340151 -0.0107714
0.00850377 -0.00453534 -0.00699199
0.00699199 0.00075589 -0.00831479
0.00264562 0.0179524 -0.0124722
0.00529123 0.0124722 -0.0128501
0.00774788 -0.00188973 -0.00793685
0.00264562 0.0192752 -0.0134171
-0.00302356 0.0434637 -0.0200311
-0.00264562 0.041385 -0.0190862
0.00170075 0.0075589 -0.0154958
0.00793685 -0.00283459 -0.00718096
0.013606 -0.00377945 -0.0219208
-0.00869274 -0.00491329 0.0854156
-0.00377945 0.00774788 -0.0143619
-0.0117163 0.0308025 0.0154958
-0.00736993 0.0285349 -0.0145509
0.00321253 -0.0332592 0.00925966
-0.00396842 -0.0281569 0.0366607
0.0258892 -0.0376055 0.05518
0.0251334 -0.0400622 0.0164406
-0.0372276 0.0164406 -0.0285349
-0.0353379 0.0151178 0.0124722
-0.0241885 -0.0300466 -0.0532903
-0.00699199 -0.00699199 -0.0211649
0.00283459 0.0128501 -0.0576366
0.0173855 -0.0221098 -0.034771
0.00925966 -0.0321253 0
0.0228657 -0.041196 -0.0251334
0.0119053 -0.0188973 -0.00377945
0.00302356 0.0181414 -0.0132281
-0.00774788 0.0636838 -0.0257003
-0.00642507 0.0582036 -0.0238105
0.00585815 0.00188973 -0.0115273
Vibration 11
0.0107714 -0.0130391 -0.0062361
0.0111494 -0.0158737 -0.00377945
0.0141729 -0.0171965 0.0120942
0.0190862 -0.0134171 0.020409
0.0198421 -0.0115273 0.0109604
0.0166296 -0.00982658 0.00434637
0.0111494 -0.0156847 0.00377945
0.0166296 -0.00132281 0.0107714
0.0168186 0.00925966 0.0190862
-0.00264562 -0.00548021 -0.0154958
0.00302356 -0.0168186 -0.0041574
-0.0143619 -0.00736993 -0.0075589
-0.0355268 0.0113384 -0.020409
-0.0493218 0.0268341 -0.0366607
-0.0326923 0.0170075 -0.034204
-0.0464873 0.0166296 -0.0188973
0.0149288 -0.0198421 0.0145509
0.0164406 -0.0230547 0.0166296
0.0153068 -0.013984 0.00869274
0.0134171 -0.000944863 -0.00151178
0.0130391 -0.00377945 0.00113384
0.0143619 -0.0132281 0.00944863
0.0103935 0.0175745 -0.0168186
0.0487549 -0.0311805 0.0578256
-0.00774788 -0.00491329 -0.00661404
-0.00850377 0.02759 -0.00151178
-0.00718096 0.0166296 0.00075589
-0.00642507 0.00925966 0.00264562
-0.00548021 0.00850377 0.00075589
-0.00680301 0.0162516 0.000188973
-0.00529123 0.00774788 0.0020787
-0.00434637 -0.000188973 0.00434637
-0.00472431 0.00075589 0.00472431
-0.00453534 0.00718096 -0.00925966
-0.0128501 0.0555579 -0.00151178
-0.0257003 -0.0171965 -0.0198421
0.00888171 -0.0171965 -0.0128501
-0.00736993 0.00793685 -0.0119053
0.0224877 -0.0340151 0.0075589
-0.00888171 -0.0158737 0.00113384
-0.0738883 0.0474321 -0.0519675
-0.0425188 0.027779 -0.0455424
0.0179524 -0.0309915 0.0230547
0.0158737 -0.0151178 0.00944863
0.0115273 0.00283459 -0.00434637
0.0143619 -0.013984 0.0100155
-0.00491329 0.0122832 -0.0243775
0.0232436 0.0243775 -0.0124722
0.0105825 0.0311805 -0.0266451
0.0736993 -0.0500777 0.0867384
0.0120942 -0.075589 0.116974
0.127368 -0.00245664 0.0241885
-0.00793685 0.0226767 -0.00132281
-0.00510226 0.00736993 0.00170075
-0.00302356 -0.00718096 0.00585815
-0.00359048 -0.00529123 0.00642507
0.00944863 -0.027401 0.00113384
Vibration 12
-0.0102045 -0.00604712 -0.0200311
-0.00982658 -0.0158737 -0.0188973
-0.000944863 -0.0213539 0.0041574
0.0103935 -0.013795 0.0160627
0.0115273 -0.00472431 0.00472431
0.00132281 0 -0.00699199
0.0130391 -0.00396842 0.00510226
0.00170075 0.0168186 -0.000566918
0.00226767 0.0357158 0.00736993
-0.0134171 -0.00491329 -0.020976
-0.0262672 -0.00396842 -0.0245664
-0.0107714 -0.0132281 -0.00699199
0.0147399 -0.0224877 0.0122832
0.0221098 -0.020409 0.0119053
0.00774788 -0.0122832 -0.00453534
0.0387394 -0.0374166 0.0379835
-0.000188973 -0.0311805 0.0143619
-0.00264562 -0.0360938 0.020598
-0.00434637 -0.0226767 0.0143619
-0.00396842 -0.00377945 0.0020787
0.000377945 -0.0120942 0.0062361
0.0020787 -0.0260782 0.0124722
-0.00888171 0.0300466 -0.0188973
-0.0427078 0.0164406 -0.0221098
0.00132281 0.00264562 0.000188973
0.00245664 0.0317474 -0.00283459
0.000944863 0.0247554 -0.00377945
0.00245664 0.00396842 0.0020787
-0.00188973 0.0126612 0.00302356
-0.00132281 0.0391173 -0.0111494
-0.000566918 0.0251334 -0.0103935
0.00321253 -0.00680301 -0.00113384
0.00434637 -0.0164406 0.00491329
0.00680301 0.0224877 0.000566918
0.00434637 0.0563138 -0.00434637
-0.0130391 -0.00453534 -0.00170075
-0.0168186 -0.0202201 -0.0319364
0.0153068 0.0219208 0.00132281
-0.0468652 0.00321253 -0.0404401
-0.0179524 -0.0132281 -0.00831479
0.0417629 -0.0272121 0.0270231
0.0153068 -0.0122832 -0.00283459
-0.00377945 -0.0468652 0.0272121
-0.00642507 -0.0234326 0.0168186
0.00188973 -0.00491329 0.00264562
0.00491329 -0.0298577 0.013795
-0.0334482 0.0253223 -0.0291018
0.0147399 0.0423299 -0.013606
-0.0120942 0.0508336 -0.0321253
-0.0461093 0.0168186 -0.0200311
-0.0221098 0.041385 -0.0988327
-0.114895 0.027779 0.0120942
-0.00321253 0.0608492 -0.0170075
-0.00283459 0.0377945 -0.0164406
0.00491329 -0.0230547 0.00113384
0.00642507 -0.0387394 0.0117163
0.0115273 -0.00680301 0.00585815
Vibration 13
-0.00245664 -0.00453534 0.0226767
-0.00226767 -0.0041574 0.0230547
-0.00283459 -0.00396842 -0.00680301
-0.00264562 -0.0041574 -0.0270231
-0.00283459 -0.00396842 -0.0120942
-0.00226767 -0.00453534 0.00396842
-0.000377945 -0.00264562 -0.00566918
-0.00226767 -0.0096376 -0.00264562
-0.00245664 -0.0179524 -0.0111494
-0.00188973 -0.00548021 0.0262672
0.00510226 -0.00132281 0.0236216
0.00075589 0.00170075 0.00925966
-0.0105825 -0.00170075 -0.00132281
-0.013606 -0.00907068 0.0041574
-0.0096376 -0.0103935 0.0177634
-0.0198421 0.00548021 -0.0234326
-0.00321253 -0.000566918 -0.0103935
-0.00774788 -0.00264562 -0.00510226
-0.0075589 -0.00264562 0.00170075
-0.00321253 0.000188973 0.00283459
0.000377945 0.00793685 -0.00642507
-0.000188973 0.00699199 -0.0130391
-0.00170075 -0.0062361 0.0170075
0.0113384 -0.0268341 -0.00491329
-0.00170075 -0.000566918 0.0111494
0.00396842 0.000377945 -0.0122832
-0.0020787 0.0268341 -0.0181414
0.0130391 -0.0196532 -0.00718096
-0.00113384 0.0187083 -0.0158737
-0.0153068 0.0799354 -0.0291018
-0.0075589 0.05518 -0.020976
0.0171965 -0.0353379 0.00264562
0.0253223 -0.0685971 0.00831479
0.0262672 0.0583925 0.013606
0.0188973 -0.0268341 -0.0151178
-0.00774788 0.00566918 0.047999
-0.00151178 -0.00340151 0.0425188
0.0612271 0.0504557 0.041574
0.0141729 0.000377945 0.0319364
0.00548021 0.00642507 0.00585815
-0.020598 -0.0124722 -0.00283459
-0.0143619 -0.0153068 0.020976
-0.0109604 -0.00510226 -0.00585815
-0.0107714 -0.00529123 0.00642507
0.00359048 0.0130391 -0.0075589
0.00245664 0.0115273 -0.0185193
0.00982658 -0.00472431 0.0213539
-0.00661404 -0.00888171 0.0188973
-0.00680301 -0.0109604 0.0228657
0.0117163 -0.0219208 -0.0185193
0.00396842 -0.0357158 0.0340151
0.0394953 -0.0442196 -0.0194642
-0.0296687 0.136438 -0.0427078
-0.0185193 0.100155 -0.0302356
0.0281569 -0.0752111 0.0158737
0.0404401 -0.128123 0.0249444
-0.00151178 0.000566918 0.00491329
Vibration 14
0.00604712 0.0062361 0.00548021
0.00642507 0.00075589 0.0239995
0.0120942 -0.00302356 -0.0020787
0.0153068 -0.000377945 -0.0478101
0.0156847 0.00264562 -0.0566918
0.0105825 0.00642507 -0.0258892
0.00680301 -0.00245664 -0.0812582
0.0109604 0.0349599 -0.00283459
0.0120942 0.0833369 0.0270231
0.00529123 0.00774788 0.0117163
0.0075589 0.0126612 0.0075589
0.00793685 0.0132281 0.0020787
0.0075589 0.00982658 0.000944863
0.00850377 0.00377945 0.0062361
0.00718096 0.00472431 0.0113384
0.00529123 0.0122832 -0.00869274
0.0141729 -0.0160627 0.0126612
0.0170075 -0.0262672 0.0190862
0.0168186 -0.0224877 0.013984
0.013984 -0.00661404 0.00132281
0.0134171 -0.0143619 0.00831479
0.0141729 -0.0188973 0.0141729
0.00907068 0.0249444 -0.0262672
0.00869274 0.00377945 -0.00888171
-0.00491329 0.00774788 -0.0107714
-0.0153068 -0.0179524 0.0198421
-0.0188973 -0.00283459 0.0187083
-0.0283459 -0.0102045 0.0222988
-0.0289128 -0.0119053 0.0239995
-0.020787 0.00642507 0.0109604
-0.0264562 0.00302356 0.00472431
-0.0317474 -0.0120942 0.0105825
-0.0323143 -0.0177634 0.0185193
-0.0154958 -0.00396842 -0.0236216
-0.0260782 -0.068786 0.0236216
-0.000188973 0.0132281 0.0041574
0.00188973 -0.00170075 0.0563138
-0.00566918 0.00170075 -0.0536682
0.00831479 0.0166296 0.0096376
0.0075589 0.0162516 -0.00075589
0.0100155 -0.00151178 0.00604712
0.00736993 0.00188973 0.013795
0.0192752 -0.0326923 0.0251334
0.0181414 -0.0270231 0.0170075
0.0119053 -0.0128501 0.0062361
0.013795 -0.0219208 0.0170075
-0.0198421 0.020409 -0.0376055
0.0317474 0.0370386 -0.0238105
0.0103935 0.0451645 -0.041385
0.00340151 0.00925966 -0.0192752
0.0109604 0.00642507 0.0041574
0.0134171 -0.00982658 -0.0122832
-0.0179524 0.013984 0.00774788
-0.0262672 0.0105825 -0.00434637
-0.034582 -0.0188973 0.0075589
-0.0351489 -0.027779 0.0222988
0.0115273 -0.0117163 -0.120376
Vibration 15
-0.00661404 -0.00510226 0.0258892
-0.00491329 -0.0113384 0.00869274
0.00245664 -0.0164406 -0.0294797
0.0100155 -0.0105825 -0.0377945
0.0111494 -0.00472431 -0.0120942
0.00302356 -0.00113384 0.00774788
0.00869274 -0.00491329 -0.000566918
0.00434637 0.0260782 -0.00718096
0.00661404 0.0682191 -0.0302356
-0.00869274 -0.00491329 0.0372276
-0.00264562 0.0020787 0.0309915
-0.000944863 0.00245664 0.0156847
-0.00680301 -0.00869274 0.00793685
-0.00661404 -0.0213539 0.0185193
-0.00925966 -0.0179524 0.0321253
-0.0105825 -0.00340151 -0.020598
0.00283459 -0.013984 -0.0360938
-0.013984 -0.0062361 -0.0296687
-0.0151178 0.00491329 -0.0111494
0.00340151 0.00680301 0.00075589
0.020598 0.00472431 -0.00982658
0.0194642 -0.00604712 -0.0285349
0.00491329 0.0122832 0.0319364
0.000188973 -0.0355268 -0.0230547
-0.00472431 0.00302356 -0.00132281
-0.0020787 0.0262672 -0.0100155
0.00302356 0.0113384 -0.00491329
0.00472431 0.020598 -0.00831479
0.0111494 -0.000944863 0.000188973
0.00907068 -0.0166296 0.00585815