[Molden Format]
[FREQ]
8.6
20.7
27.0
30.4
31.5
40.8
41.9
46.3
51.9
69.3
77.1
90.7
98.7
102.7
106.8
119.9
134.4
141.6
151.3
177.9
187.0
190.4
218.2
228.6
240.0
255.9
262.2
281.2
295.4
314.1
324.0
345.0
354.1
357.3
366.9
383.0
386.7
412.1
424.3
448.7
480.6
487.2
509.6
520.5
523.2
538.1
547.4
558.8
565.4
578.6
594.0
605.6
610.1
611.3
617.3
629.8
644.5
652.3
665.0
712.5
718.2
733.5
758.3
766.8
802.7
822.6
827.6
842.7
850.0
868.1
883.1
883.9
895.3
903.3
938.8
960.6
975.3
1000.7
1008.2
1009.0
1014.7
1015.8
1021.0
1034.7
1035.9
1043.5
1074.7
1075.5
1082.0
1096.0
1124.6
1127.4
1128.1
1146.9
1160.9
1179.2
1185.5
1186.3
1210.8
1224.4
1244.6
1261.4
1270.1
1272.7
1274.6
1283.0
1284.2
1287.1
1296.4
1303.5
1315.4
1324.2
1334.4
1343.6
1349.1
1353.3
1354.8
1365.1
1368.6
1384.9
1394.8
1427.3
1433.3
1474.9
1497.8
1521.1
1528.4
1534.5
1542.4
1566.4
1573.1
1604.0
1612.7
1648.3
1687.6
1700.0
1700.7
1708.0
1710.8
1757.4
1767.9
1866.0
1998.1
2449.2
2651.0
2654.3
2667.7
2673.4
2705.7
2736.7
2744.6
2745.2
2746.1
2746.9
2749.0
2756.5
2762.1
2763.2
2764.7
2765.7
2765.9
2769.4
2769.7
2776.4
2779.8
       
[FR-COORD]
C -1.85722 -3.39206 0.0379835
C 0.773087 -3.39206 0.0379835
C 2.06509 -1.07015 0.0379835
N 0.850188 1.16143 0.0774788
C -1.72664 1.18524 0.0362827
C -3.17606 -1.08621 -0.0179524
N -2.87465 3.51206 0.0153068
C -5.83491 -1.02102 -0.155147
N -8.02038 -0.961493 -0.282892
C -3.22652 -5.79806 0.127557
C -2.85783 -7.60445 -1.77294
C -4.14247 -9.88346 -1.69093
C -5.79862 -10.3476 0.334482
C -6.17222 -8.57709 2.25312
C -4.87587 -6.2926 2.1267
O -6.92377 -12.6477 0.191618
C 4.84299 -0.962815 -0.0394953
C 6.27332 -2.61916 1.43846
C 8.89721 -2.54811 1.31903
C 10.1095 -0.82581 -0.277223
C 8.67554 0.845841 -1.73288
C 6.05015 0.784614 -1.60835
C 12.9227 -0.762126 -0.397976
C -8.70767 -13.2646 2.10364
C -1.47021 5.81412 0.319175
C 0.986059 5.751 2.30717
C 2.58515 6.50236 0.148532
C 0.557469 6.46532 -1.62006
C -3.25108 7.95556 0.880234
C 5.01779 7.03639 -0.549343
C 5.40197 7.53793 -3.13865
C 3.42588 7.46536 -4.86945
C 0.921997 6.91224 -4.13812
O -5.52197 7.88809 0.908202
O 1.05768 5.26289 4.47317
O -1.94472 10.0891 1.39745
H 1.81829 -5.1582 0.0428968
H -4.79877 3.64736 0.0672742
H -1.56507 -7.20193 -3.32894
H -3.90096 -11.3055 -3.1532
H -7.44911 -8.93822 3.81498
H -5.15102 -4.87946 3.60541
H 5.333 -3.95425 2.69551
H 10.0091 -3.83671 2.47082
H 9.60888 2.19832 -2.96517
H 4.92274 2.1078 -2.72385
H 13.7564 -2.65903 -0.247176
H 13.7033 0.373221 1.16143
H 13.6262 0.0648176 -2.16676
H -9.34734 -15.1496 1.51367
H -10.2894 -11.9306 2.09892
H -7.79682 -13.3587 3.95784
H 6.57814 7.05869 0.785937
H 7.30171 7.98674 -3.78777
H 3.80761 7.84765 -6.85706
H -0.597153 6.84402 -5.51479
H -3.04454 11.5504 1.81792

[FR-NORM-COORD]
Vibration 1
-0.00226767 0.000566918 -0.0062361
-0.00226767 0.000566918 -0.0105825
-0.00245664 0.00075589 -0.0149288
-0.00264562 0.000566918 -0.0132281
-0.00264562 0.00075589 -0.0100155
-0.00245664 0.000566918 -0.00680301
-0.00302356 0.00075589 -0.0102045
-0.00264562 0 -0.00377945
-0.00283459 -0.000566918 -0.00132281
-0.00170075 0.000566918 -0.000188973
-0.00472431 -0.00245664 0.0020787
-0.00302356 -0.00321253 0.00888171
0.00188973 -0.000944863 0.0134171
0.00453534 0.00245664 0.0109604
0.00264562 0.00321253 0.00396842
0.00396842 -0.00226767 0.020598
-0.00283459 0.00188973 -0.0221098
0.00283459 0.00170075 -0.027779
0.00245664 0.00377945 -0.0355268
-0.00359048 0.00585815 -0.0377945
-0.00907068 0.00585815 -0.0323143
-0.00850377 0.00396842 -0.0245664
-0.00396842 0.00850377 -0.0464873
0.0103935 -0.00113384 0.0270231
-0.00510226 0.00132281 -0.00302356
-0.0296687 0.00642507 0.0270231
-0.00245664 -0.00170075 0.0445975
0.0190862 -0.00585815 0.0198421
-0.0105825 0.00377945 -0.0298577
0.00680301 -0.00812582 0.0721875
0.0391173 -0.0177634 0.0752111
0.0599043 -0.0200311 0.0515895
0.0502667 -0.0141729 0.0228657
-0.0107714 0.0020787 -0.0434637
-0.0559359 0.0100155 0.0287238
-0.0156847 0.00831479 -0.0357158
-0.00226767 0.000566918 -0.0107714
-0.00321253 -0.000377945 -0.0113384
-0.00850377 -0.00434637 -0.00151178
-0.00510226 -0.00566918 0.0109604
0.00793685 0.00453534 0.0141729
0.00472431 0.00566918 0.00188973
0.0075589 0 -0.0262672
0.00680301 0.00377945 -0.0400622
-0.013795 0.0075589 -0.034204
-0.0128501 0.00434637 -0.0200311
-0.00113384 0.0100155 -0.0427078
-0.000566918 0.0147399 -0.0527234
-0.0103935 0.00321253 -0.0515895
0.0126612 -0.00396842 0.0332592
0.00774788 -0.00434637 0.027779
0.0154958 0.00529123 0.0247554
-0.00907068 -0.00699199 0.0908958
0.0478101 -0.0239995 0.096754
0.0844708 -0.0270231 0.054991
0.0668963 -0.0170075 0.00453534
-0.0196532 0.0100155 -0.0521564
Vibration 2
0.00472431 0 0.0268341
0.00472431 0.0020787 0.020787
0.00302356 0.00302356 0.020598
0.0020787 0.00226767 0.0257003
0.00170075 0.000566918 0.034582
0.00302356 -0.000566918 0.0385504
-0.000566918 -0.000944863 0.0379835
0.00245664 -0.00151178 0.0510226
0.00170075 -0.0020787 0.061983
0.0062361 -0.00113384 0.0130391
0.0122832 0.0102045 0.00302356
0.0096376 0.0111494 -0.0170075
0.000377945 0.000188973 -0.0272121
-0.00359048 -0.0130391 -0.0158737
-0.000566918 -0.0134171 0.00434637
-0.00396842 0.00359048 -0.0489439
0.00283459 0.00396842 0.0107714
0.00888171 0.00831479 0.0096376
0.00831479 0.00850377 -0.00113384
0.00170075 0.00453534 -0.0105825
-0.00434637 0.000377945 -0.00925966
-0.00396842 0.000188973 0.00132281
0.00113384 0.00434637 -0.0224877
-0.020787 -0.00264562 -0.0667073
-0.00151178 0.00340151 0.00831479
-0.00170075 0.0302356 0.00831479
-0.0020787 0.00434637 -0.00113384
-0.00226767 -0.0200311 -0.000566918
-0.00264562 0.0096376 -0.0185193
-0.00264562 -0.00283459 -0.00850377
-0.00359048 -0.0364717 -0.0151178
-0.00359048 -0.0606602 -0.013984
-0.00302356 -0.0531013 -0.00642507
-0.00245664 0.00831479 -0.0145509
-0.000188973 0.0559359 0.0141729
-0.00340151 0.0175745 -0.0491329
0.0062361 0.00283459 0.0147399
-0.000566918 -0.00245664 0.0444086
0.0188973 0.0190862 0.0107714
0.013984 0.020409 -0.0255113
-0.00925966 -0.0222988 -0.0226767
-0.00396842 -0.0234326 0.0132281
0.013984 0.0113384 0.0166296
0.0132281 0.0119053 -0.0020787
-0.0096376 -0.00264562 -0.0164406
-0.00869274 -0.00302356 0.00245664
0.00188973 0.00453534 -0.0236216
0.0075589 0.00642507 -0.0272121
-0.0062361 0.00226767 -0.0264562
-0.02759 0.00604712 -0.0871164
-0.0134171 0.0062361 -0.0655735
-0.0336371 -0.0236216 -0.0614161
-0.00245664 0.0160627 -0.00907068
-0.00396842 -0.0432747 -0.0211649
-0.0041574 -0.0865495 -0.0190862
-0.00321253 -0.0723765 -0.00529123
-0.00396842 0.0222988 -0.0670853
Vibration 3
-0.0179524 0.0145509 -0.00831479
-0.0179524 0.0102045 -0.00982658
-0.013606 0.00774788 -0.000566918
-0.00925966 0.00982658 0.0041574
-0.00944863 0.0141729 0.00396842
-0.013984 0.0168186 0.00170075
-0.00529123 0.0162516 0.0062361
-0.0141729 0.0211649 0.0103935
-0.0145509 0.0241885 0.0183303
-0.0153068 0.0128501 -0.0147399
-0.0192752 0.0236216 -0.0258892
-0.000188973 0.0130391 -0.0230547
0.0232436 -0.00850377 -0.00888171
0.020787 -0.0156847 -0.00264562
0.00113384 -0.00453534 -0.00585815
0.0478101 -0.020976 -0.00283459
-0.0130391 -0.00283459 0.00529123
-0.0249444 -0.0153068 0.00302356
-0.0243775 -0.0325033 0.00491329
-0.0120942 -0.0370386 0.00944863
-0.000188973 -0.0226767 0.013984
-0.00075589 -0.00548021 0.0120942
-0.0117163 -0.0582036 0.00907068
0.0920297 -0.055369 0.0270231
-0.000566918 0.0141729 0.00075589
-0.000566918 0.0145509 0.000377945
0.000566918 0.00642507 -0.00170075
0.000188973 0.00566918 -0.00132281
0.00396842 0.0194642 -0.0041574
0.00132281 0.000377945 -0.00359048
0.00170075 -0.00680301 -0.00491329
0.00132281 -0.0075589 -0.00434637
0.000377945 -0.00132281 -0.00245664
0.00377945 0.0249444 -0.00453534
-0.00075589 0.0198421 0.00151178
0.00907068 0.0173855 -0.00850377
-0.0211649 0.00831479 -0.0171965
-0.00491329 0.0198421 0.00831479
-0.0355268 0.0393063 -0.0353379
-0.00132281 0.0202201 -0.0302356
0.034582 -0.0300466 0.00510226
0 -0.0105825 -0.000377945
-0.034393 -0.0120942 -0.00075589
-0.0338261 -0.0428968 0.00245664
0.00982658 -0.0253223 0.0188973
0.00850377 0.00529123 0.0154958
-0.0260782 -0.0646286 0.0062361
-0.00264562 -0.0661404 0.0103935
-0.00585815 -0.0610381 0.00982658
0.114895 -0.0657625 0.0351489
0.0685971 -0.082959 0.0561249
0.125289 -0.0423299 0.0113384
0.00151178 0.00132281 -0.00396842
0.00245664 -0.0117163 -0.00642507
0.00151178 -0.0132281 -0.00529123
0 -0.00188973 -0.0020787
0.0124722 0.020976 -0.0119053
Vibration 4
-0.00736993 0.00075589 -0.00850377
-0.00718096 0 -0.0124722
-0.00793685 0 -0.0124722
-0.00793685 -0.000377945 -0.00925966
-0.00812582 0.00075589 -0.0041574
-0.00793685 0.00075589 -0.00321253
-0.00377945 0.00283459 0.000566918
-0.00831479 0.000944863 0.00434637
-0.00869274 0.000944863 0.0111494
-0.0075589 0.000944863 -0.00850377
-0.0230547 0.00888171 -0.0188973
-0.0219208 0.00831479 -0.0175745
-0.00453534 -0.000377945 -0.00548021
0.0100155 -0.00774788 0.00434637
0.00812582 -0.00680301 0.00264562
-0.00434637 -0.000566918 -0.00472431
-0.00812582 0.00585815 -0.0117163
-0.00566918 0.0432747 0.0272121
-0.00529123 0.0591484 0.0396842
-0.00869274 0.0364717 0.0124722
-0.0122832 -0.00491329 -0.0313695
-0.0126612 -0.0198421 -0.0434637
-0.00850377 0.0574477 0.0309915
0.0196532 -0.0132281 0.0134171
0.00529123 -0.00245664 0.00245664
0.00812582 -0.0175745 0.000188973
0.00907068 -0.0232436 -0.000566918
0.00680301 -0.00982658 0.00170075
0.0156847 0.00377945 0.00907068
0.0120942 -0.0394953 -0.00302356
0.0126612 -0.0410071 -0.00321253
0.0102045 -0.0268341 -0.000944863
0.00718096 -0.0107714 0.00151178
0.0154958 0.0124722 0.0173855
0.0075589 -0.0217318 -0.00075589
0.0257003 -0.00151178 0.00585815
-0.00661404 0.000377945 -0.0145509
-0.00283459 0.00774788 0.00831479
-0.0357158 0.0153068 -0.027779
-0.0336371 0.0141729 -0.0251334
0.0224877 -0.0141729 0.0130391
0.0194642 -0.0122832 0.00982658
-0.0041574 0.061794 0.0478101
-0.00245664 0.0901399 0.0714316
-0.0153068 -0.0245664 -0.055369
-0.0156847 -0.0504557 -0.076156
0.00472431 0.0648176 0.0510226
-0.027779 0.0752111 0.027779
-0.00226767 0.0493218 0.0296687
0.0188973 -0.0130391 0.013795
0.0154958 -0.0181414 0.0364717
0.041196 -0.0173855 0.00264562
0.013606 -0.0515895 -0.00472431
0.0149288 -0.0542351 -0.00510226
0.0103935 -0.0285349 -0.00113384
0.00548021 -0.000377945 0.00302356
0.0328812 0.00264562 0.0100155
Vibration 5
-0.00831479 0.00718096 0.00774788
-0.00793685 0.0075589 0.0171965
-0.00774788 0.00699199 0.0120942
-0.00699199 0.00718096 0.00774788
-0.00718096 0.0075589 0.00377945
-0.0075589 0.00774788 -0.0020787
-0.00453534 0.00850377 0.00604712
-0.00642507 0.0102045 -0.0200311
-0.00548021 0.0132281 -0.0359048
-0.00396842 0.00510226 0.00510226
0.0459203 -0.0154958 0.0336371
0.0585815 -0.0222988 0.0334482
0.0192752 -0.00907068 0.00434637
-0.0336371 0.0122832 -0.0257003
-0.0445975 0.0187083 -0.0249444
0.0398732 -0.0194642 0.00982658
-0.00774788 0.00510226 0.00604712
-0.00529123 0.0232436 0.0238105
-0.00566918 0.0168186 0.0120942
-0.00907068 -0.00850377 -0.0177634
-0.0117163 -0.0249444 -0.0340151
-0.0113384 -0.0177634 -0.0219208
-0.00944863 -0.0183303 -0.0328812
-0.00132281 -0.00566918 -0.0239995
-0.000188973 0.00585815 0.00642507
0.00264562 -0.00321253 0.00340151
0.00188973 -0.0062361 0.00170075
-0.00075589 0.00283459 0.00453534
0.00548021 0.00907068 0.0107714
0.00321253 -0.0160627 -0.00132281
0.00151178 -0.0158737 -0.00151178
-0.00113384 -0.00604712 0.00132281
-0.00245664 0.00359048 0.00453534
0.00510226 0.0166296 0.00396842
0.00377945 -0.00453534 0.00302356
0.0111494 0.00245664 0.0232436
-0.00736993 0.00774788 0.0270231
-0.00434637 0.0120942 -0.00245664
0.075778 -0.0257003 0.0557469
0.0982658 -0.0379835 0.05518
-0.0650066 0.0232436 -0.0487549
-0.0846597 0.0338261 -0.0468652
-0.00321253 0.0427078 0.0461093
-0.00340151 0.0309915 0.0257003
-0.0141729 -0.0436527 -0.0565028
-0.0132281 -0.0304246 -0.034771
-0.0154958 -0.020598 -0.0281569
0.00283459 -0.013606 -0.0425188
-0.0156847 -0.0292908 -0.0406291
0.0230547 -0.0166296 -0.0151178
-0.00888171 -0.0147399 -0.0774788
-0.0440306 0.0228657 -0.00170075
0.00529123 -0.0241885 -0.00359048
0.00264562 -0.0236216 -0.00377945
-0.00245664 -0.00585815 0.00113384
-0.00453534 0.0107714 0.00642507
0.0149288 0.00453534 0.0264562
Vibration 6
-0.0132281 -0.00188973 -0.0107714
-0.0126612 -0.00604712 -0.020976
-0.00793685 -0.00907068 -0.0164406
-0.00472431 -0.00699199 -0.00680301
-0.00434637 -0.00188973 0.000944863
-0.00907068 0.000944863 0.000566918
0.00113384 0.000944863 0.0103935
-0.00944863 0.00869274 0.0113384
-0.00982658 0.0164406 0.020598
-0.013606 -0.00132281 -0.00907068
0.0113384 -0.0166296 0.00982658
0.0194642 -0.020976 0.0166296
0.00132281 -0.0103935 0.0041574
-0.027401 0.0062361 -0.0168186
-0.034204 0.00982658 -0.0232436
0.0154958 -0.0179524 0.0153068
-0.00812582 -0.00736993 -0.0160627
-0.00510226 -0.0336371 -0.048377
-0.00491329 -0.0164406 -0.0351489
-0.00699199 0.027401 0.0107714
-0.00982658 0.047999 0.0372276
-0.00982658 0.0294797 0.0230547
-0.00680301 0.0546131 0.0325033
0.000944863 -0.0096376 0.00453534
0.00850377 -0.00264562 0.00359048
0.0105825 -0.00188973 0.00132281
0.00888171 -0.00529123 -0.00132281
0.00774788 -0.0103935 0
0.0162516 0.0041574 0.00226767
0.00774788 -0.00359048 -0.00377945
0.00604712 -0.0102045 -0.00529123
0.00548021 -0.0179524 -0.00434637
0.0062361 -0.0177634 -0.00151178
0.0162516 0.0103935 0.0132281
0.0134171 -0.000377945 0.00151178
0.0243775 0.00302356 -0.0128501
-0.0160627 -0.00812582 -0.0300466
0.00188973 0.00585815 0.0190862
0.0251334 -0.0251334 0.0190862
0.0400622 -0.0326923 0.0313695
-0.0432747 0.0158737 -0.02759
-0.055369 0.0213539 -0.0377945
-0.00245664 -0.0667073 -0.0814472
-0.00302356 -0.0360938 -0.0589595
-0.0119053 0.0797464 0.0702978
-0.0124722 0.0453534 0.0438416
0.0117163 0.0631168 0.0349599
-0.0304246 0.0593374 0.0410071
-0.00188973 0.0657625 0.0396842
0.0188973 -0.0200311 0.0179524
-0.0075589 -0.0200311 -0.0247554
-0.0166296 0.0154958 0.0145509
0.00831479 0.00226767 -0.00453534
0.00510226 -0.00907068 -0.00736993
0.0041574 -0.0236216 -0.00566918
0.00548021 -0.0228657 -0.000377945
0.0302356 0.00774788 -0.0143619
Vibration 7
0.00548021 0.00245664 -0.0177634
0.00548021 0.00434637 -0.0147399
0.00359048 0.00529123 -0.00944863
0.00245664 0.00472431 -0.00340151
0.00264562 0.00283459 -0.0062361
0.00472431 0.00188973 -0.0183303
-0.00283459 0.00151178 -0.0120942
0.00548021 0 -0.0379835
0.00661404 -0.0020787 -0.0572587
0.00510226 0.00283459 -0.013606
0.00907068 -0.00642507 -0.00377945
0.00793685 -0.00566918 0.00453534
0.00302356 0.00491329 0.00283459
-0.00151178 0.0147399 -0.00699199
-0.000188973 0.0134171 -0.0151178
0.00283459 0.00434637 0.0126612
0.00377945 0.00245664 -0.00283459
-0.00453534 0.00831479 0.0119053
-0.0041574 -0.00151178 0.0162516
0.00434637 -0.0171965 0.00566918
0.0126612 -0.0213539 -0.00699199
0.0119053 -0.0109604 -0.0109604
0.00472431 -0.0308025 0.00850377
-0.00245664 0.0156847 0.0113384
-0.00718096 0.00321253 0.00566918
-0.00359048 0.00188973 0.00907068
-0.00510226 -0.000188973 0.00982658
-0.00548021 0.00453534 0.00982658
-0.00869274 -0.00774788 0.0359048
-0.00377945 -0.00472431 0.0102045
-0.00283459 -0.00302356 0.0109604
-0.00340151 0.00302356 0.0111494
-0.0041574 0.00680301 0.0102045
-0.00434637 -0.0702978 0.267774
-0.0107714 0.00699199 0.0103935
-0.0188973 0.0634948 -0.230358
0.0075589 0.00548021 -0.0149288
-0.00245664 -0.00888171 0.0814472
0.0124722 -0.0143619 -0.00302356
0.0111494 -0.0130391 0.0122832
-0.00548021 0.0230547 -0.00831479
-0.00321253 0.020598 -0.0226767
-0.0115273 0.0202201 0.0192752
-0.0105825 0.00283459 0.0272121
0.0194642 -0.0326923 -0.0143619
0.0183303 -0.013984 -0.020976
-0.00529123 -0.0353379 0.0062361
0.00925966 -0.0374166 0.0111494
0.0109604 -0.0315584 0.0105825
-0.00113384 0.0122832 0.020598
-0.00226767 0.0158737 -0.000944863
-0.00793685 0.0264562 0.0145509
-0.00359048 -0.00982658 0.0102045
-0.00188973 -0.00661404 0.0111494
-0.00264562 0.00491329 0.0117163
-0.00434637 0.0109604 0.0102045
-0.0217318 0.0582036 -0.218074
Vibration 8
-0.00585815 -0.000188973 0.0115273
-0.00548021 0.000188973 -0.00529123
-0.00472431 -0.00075589 -0.0153068
-0.00377945 0 -0.0268341
-0.00359048 0.000188973 -0.0171965
-0.00548021 0.000377945 0.0200311
-0.000377945 0.00264562 -0.0527234
-0.00831479 0.00283459 0.075967
-0.0113384 0.00585815 0.129824
-0.00132281 -0.00264562 0.0134171
0.0170075 -0.00472431 0.0181414
0.0230547 -0.00793685 0.0113384
0.00850377 -0.0096376 -0.00075589
-0.00831479 -0.00907068 -0.00453534
-0.0124722 -0.00604712 0.00302356
0.0145509 -0.0120942 -0.00793685
-0.00453534 -0.00283459 -0.0107714
-0.0113384 0.00736993 0.0075589
-0.0109604 0.00453534 0.0170075
-0.00396842 -0.00888171 0.00812582
0.00283459 -0.0192752 -0.0105825
0.0020787 -0.0156847 -0.0196532
-0.00340151 -0.0124722 0.0192752
-0.0177634 -0.00453534 -0.0357158
0.00132281 -0.00075589 -0.0294797
-0.00491329 -0.0230547 -0.0211649
0.00264562 -0.00113384 -0.00718096
0.00907068 0.0173855 -0.0153068
0.0020787 -0.00377945 -0.0162516
0.00491329 0.0100155 0.00925966
0.0143619 0.0445975 0.0175745
0.020787 0.0655735 0.00925966
0.0187083 0.0517785 -0.00793685
0.00245664 -0.00831479 0.00283459
-0.0151178 -0.0470542 -0.0260782
0.00170075 -0.000566918 -0.027779
-0.00548021 0 -0.00774788
-0.000377945 0.00396842 -0.0349599
0.0266451 -0.00283459 0.0264562
0.0376055 -0.00907068 0.0147399
-0.0177634 -0.0111494 -0.0128501
-0.0255113 -0.00661404 0.00113384
-0.0173855 0.0179524 0.0145509
-0.0162516 0.0128501 0.0315584
0.00850377 -0.0298577 -0.0179524
0.00736993 -0.0228657 -0.0332592
-0.00699199 -0.013984 0.0211649
-0.00793685 -0.0149288 0.0234326
0.00510226 -0.0120942 0.0228657
-0.0158737 -0.00226767 -0.0451645
-0.0126612 0.00151178 -0.0602823
-0.0464873 -0.0075589 -0.0219208
-0.000566918 -0.00566918 0.0158737
0.0162516 0.0557469 0.0306136
0.02759 0.0937304 0.0160627
0.0241885 0.0684081 -0.0147399
0.00188973 -0.00302356 -0.0196532
Vibration 9
-0.00888171 -0.000566918 0.034582
-0.00869274 -0.00245664 0.054991
-0.0075589 -0.00321253 0.0436527
-0.00850377 -0.00321253 0.0258892
-0.00774788 -0.00151178 0.00718096
-0.00831479 -0.000944863 0.0107714
-0.00113384 0.0020787 -0.0279679
-0.00699199 -0.00226767 -0.0143619
-0.00585815 -0.00453534 -0.0362827
-0.00944863 -0.00113384 0.0247554
-0.0141729 0.0151178 0.00831479
-0.0122832 0.013795 -0.00680301
-0.00491329 -0.00453534 -0.00491329
-0.00075589 -0.020409 0.0105825
-0.00340151 -0.0175745 0.0251334
-0.00264562 -0.00472431 -0.0217318
-0.00831479 0.0020787 0.0325033
0.00888171 -0.00453534 0.00812582
0.00793685 0.00226767 -0.0162516
-0.0103935 0.0158737 -0.0151178
-0.027401 0.0251334 0.0119053
-0.0255113 0.0171965 0.0353379
-0.0119053 0.0221098 -0.0455424
0.0149288 -0.0302356 -0.013795
0.00699199 -0.00377945 -0.0166296
0.00642507 -0.020598 -0.0143619
0.00888171 -0.0103935 -0.00869274
0.0111494 0 -0.0115273
0.0164406 0.00151178 -0.00869274
0.0096376 -0.00359048 -0.00113384
0.0134171 0.013606 0.00283459
0.0160627 0.0228657 -0.000566918
0.0153068 0.0162516 -0.00812582
0.0166296 0.0075589 0.00888171
0.00226767 -0.0326923 -0.0170075
0.0258892 -0.000188973 -0.0239995
-0.0103935 -0.00321253 0.0738883
-0.000566918 0.00831479 -0.0262672
-0.0190862 0.0289128 0.00793685
-0.0162516 0.0260782 -0.0196532
0.0041574 -0.034393 0.0111494
-0.00132281 -0.0289128 0.0362827
0.0238105 -0.0156847 0.00718096
0.0213539 -0.00396842 -0.0362827
-0.0417629 0.0372276 0.0143619
-0.0387394 0.0226767 0.0544241
-0.00510226 0.0251334 -0.0461093
0.00188973 0.0313695 -0.0591484
-0.0334482 0.0160627 -0.0568808
0.0173855 -0.0268341 -0.027401
0.00982658 -0.0362827 0.0119053
0.0298577 -0.0451645 -0.0219208
0.00718096 -0.0103935 0.00170075
0.013795 0.0202201 0.00869274
0.0187083 0.0364717 0.00245664
0.0175745 0.0247554 -0.0109604
0.0328812 0.00359048 -0.0194642
Vibration 10
-0.00188973 -0.0119053 0.00510226
-0.00151178 -0.0185193 0.00718096
0.00434637 -0.0217318 0.00510226
0.0111494 -0.0175745 0.0075589
0.0117163 -0.0111494 0.0115273
0.00548021 -0.0075589 0.00736993
0.0145509 -0.0102045 0.0194642
0.00604712 0.00283459 0.00226767
0.00661404 0.013984 -0.00283459
-0.0132281 -0.0062361 -0.00283459
-0.00472431 -0.0117163 0.00377945
-0.0128501 -0.00736993 -0.0020787
-0.0287238 0.000377945 -0.0130391
-0.0442196 0.00888171 -0.0239995
-0.0362827 0.00472431 -0.0190862
-0.0308025 0.00151178 -0.0154958
0.00434637 -0.0213539 -0.00264562
0.0119053 -0.00170075 0.0113384
0.0119053 0.0119053 0.0119053
0.00321253 0.00396842 -0.00302356
-0.00510226 -0.0198421 -0.0222988
-0.00453534 -0.0309915 -0.020976
0.00302356 0.0238105 0.0020787
0.034393 -0.0355268 0.0334482
0.0117163 -0.0075589 0.00680301
0.0113384 0.0160627 0.00604712
0.00642507 0.020787 0.00359048
0.00736993 -0.00359048 0.00321253
0.00377945 -0.00888171 -0.00793685
0 0.0508336 0.00377945
-0.00585815 0.055369 0.00377945
-0.00434637 0.0285349 0.00302356
0.00245664 -0.00245664 0.00283459
0.00396842 -0.0158737 -0.0160627
0.0173855 0.0260782 0.00812582
-0.00434637 -0.00245664 -0.0158737
-0.00529123 -0.020598 0.00869274
0.013984 -0.00982658 0.0141729
0.00982658 -0.0198421 0.013795
-0.00510226 -0.0113384 0.00302356
-0.0627389 0.0192752 -0.0368497
-0.047999 0.0103935 -0.0262672
0.0183303 0.00434637 0.0224877
0.0183303 0.0291018 0.0249444
-0.0119053 -0.0279679 -0.0364717
-0.0109604 -0.0461093 -0.0321253
0.0177634 0.0323143 0.0270231
-0.00944863 0.0491329 -0.0100155
0.000566918 0.00793685 -0.00642507
0.0606602 -0.0506447 0.0532903
0.00529123 -0.0701088 0.0718096
0.0842818 -0.0122832 0.0100155
-0.00075589 0.0725655 0.0041574
-0.0117163 0.0808803 0.0041574
-0.00850377 0.0325033 0.00302356
0.00340151 -0.0219208 0.00264562
-0.00982658 -0.00321253 -0.027401
Vibration 11
-0.0115273 -0.00453534 -0.00472431
-0.0115273 -0.00680301 -0.00925966
-0.0100155 -0.00774788 -0.0105825
-0.00736993 -0.00699199 -0.00340151
-0.0075589 -0.0041574 0.00548021
-0.0096376 -0.00321253 -0.00264562
-0.00132281 -0.00113384 0.0279679
-0.00888171 -0.0041574 -0.0154958
-0.00812582 -0.0075589 -0.0308025
-0.00604712 -0.00812582 0.000377945
-0.0185193 -0.00113384 -0.00907068
-0.00491329 -0.00850377 -0.000377945
0.0194642 -0.0222988 0.0164406
0.034771 -0.0308025 0.0272121
0.0215429 -0.0234326 0.0190862
0.0330702 -0.0298577 0.0251334
-0.0103935 -0.00944863 -0.0128501
-0.0130391 -0.00170075 -0.0020787
-0.0128501 0.0020787 0.00566918
-0.0113384 -0.00302356 0.00151178
-0.00925966 -0.0141729 -0.0132281
-0.0096376 -0.0162516 -0.0196532
-0.0109604 0.00453534 0.0151178
-0.0449755 0.0113384 -0.034393
0.00831479 -0.00510226 0.0100155
0.0096376 0.0120942 0.00888171
0.00434637 0.0171965 0.00642507
0.00585815 -0.0105825 0.00529123
0.0198421 0.0096376 -0.00566918
-0.00283459 0.0515895 0.00736993
-0.00831479 0.0532903 0.00699199
-0.00529123 0.0188973 0.00491329
0.00188973 -0.0145509 0.0041574
0.0196532 0.0279679 -0.0107714
0.0160627 0.0175745 0.00982658
0.0360938 0.00340151 -0.0183303
-0.0126612 -0.0075589 -0.0117163
-0.000188973 0.00529123 0.0291018
-0.0391173 0.0103935 -0.0230547
-0.013984 -0.00302356 -0.00718096
0.0585815 -0.0444086 0.0434637
0.0330702 -0.0298577 0.0272121
-0.0151178 0.00264562 0.00113384
-0.0141729 0.0096376 0.0154958
-0.0075589 -0.0198421 -0.0181414
-0.00831479 -0.0224877 -0.0279679
-0.00699199 0.00642507 0.0166296
-0.0217318 0.00434637 0.020787
-0.00396842 0.00907068 0.0200311
-0.0661404 0.0245664 -0.0536682
-0.0162516 0.0451645 -0.0865495
-0.107147 -0.00661404 -0.00472431
-0.00434637 0.0786126 0.00850377
-0.0147399 0.082581 0.00793685
-0.00888171 0.0194642 0.00434637
0.00377945 -0.0385504 0.00340151
0.0474321 0.0153068 -0.0308025
Vibration 12
-0.0107714 0.00510226 0.0236216
-0.0100155 -0.0075589 0.0251334
0.0020787 -0.0151178 -0.000377945
0.013795 -0.00736993 -0.0120942
0.0145509 0.00434637 -0.00472431
0.0020787 0.0105825 0.00680301
0.0170075 0.00548021 -0.0130391
0.00340151 0.0300466 -0.00680301
0.00491329 0.0534792 -0.0221098
-0.0156847 0.00774788 0.0226767
-0.0175745 0.020598 0.00944863
-0.00566918 0.0143619 0.0020787
0.00680301 -0.00548021 0.00793685
0.00529123 -0.0170075 0.0181414
-0.00642507 -0.00907068 0.0253223
0.0266451 -0.0147399 0.00188973
0.00226767 -0.0272121 -0.0162516
0.0062361 -0.0283459 -0.0211649
0.00642507 -0.0160627 -0.013984
0.00302356 -0.00245664 -0.00170075
-0.00132281 -0.0158737 -0.0132281
-0.00113384 -0.0283459 -0.020409
0.00340151 0.034393 0.0287238
-0.00907068 -0.0145509 -0.0317474
0.00566918 0.0120942 -0.00340151
0.00321253 0.0166296 -0.00283459
0.00680301 0.00340151 -0.00453534
0.00396842 0.020787 -0.00188973
-0.0179524 -0.00944863 0.00699199
0.0117163 -0.0236216 -0.00793685
0.0132281 -0.0243775 -0.00774788
0.00869274 0.0041574 -0.00359048
0.00434637 0.027401 -0.00075589
-0.0175745 -0.0421409 0.00812582
0.00075589 0.034771 0.00151178
-0.0487549 0.00510226 0.0196532
-0.0196532 -0.0134171 0.0400622
0.0153068 0.00188973 -0.0162516
-0.0270231 0.0359048 0.00548021
-0.00604712 0.0238105 -0.00736993
0.0143619 -0.0328812 0.0219208
-0.00774788 -0.0177634 0.0332592
0.0096376 -0.0362827 -0.0270231
0.00888171 -0.013984 -0.0141729
-0.00434637 -0.013606 -0.0128501
-0.0041574 -0.0355268 -0.0258892
0.0308025 0.0504557 0.0784236
-0.0321253 0.0791795 0.013984
0.0113384 0.00812582 0.0194642
-0.0062361 -0.0100155 -0.0495108
-0.00396842 -0.00850377 -0.0532903
-0.0408181 -0.0247554 -0.0166296
0.0141729 -0.0442196 -0.0103935
0.0175745 -0.0470542 -0.0107714
0.00869274 0.00661404 -0.00321253
0.00151178 0.0462983 0.00132281
-0.0702978 -0.0132281 0.0291018
Vibration 13
0.00151178 -0.000566918 -0.0153068
0.00151178 0.000188973 -0.0120942
0.000377945 0.000944863 0.00661404
-0.000566918 0.000188973 0.013795
-0.000566918 -0.000566918 0.00321253
0.000566918 -0.00075589 -0.00491329
-0.000944863 -0.00075589 -0.000377945
0.000188973 -0.000944863 0.00377945
-0.000566918 -0.000944863 0.0143619
0.00113384 -0.000377945 -0.0177634
-0.00434637 -0.00302356 -0.0158737
-0.00321253 -0.00359048 -0.00718096
0.00340151 -0.000566918 -0.00113384
0.00604712 0.0041574 -0.00491329
0.00548021 0.00359048 -0.0128501
0.00869274 -0.0041574 0.0128501
0.000377945 0.0020787 0.013795
0.000377945 0 0.0102045
0.00132281 -0.00472431 0.00453534
-0.000188973 -0.00793685 0.00151178
-0.00113384 -0.000188973 0.0096376
0 0.00529123 0.0160627
-0.00113384 0.000566918 -0.0179524
-0.00831479 0.0147399 0.00340151
-0.00075589 -0.00113384 0.00075589
0 -0.00302356 0
-0.000566918 -0.00188973 -0.000188973
-0.00113384 -0.000944863 0.000377945
-0.000188973 -0.000377945 -0.000188973
-0.000944863 -0.000566918 -0.00075589
-0.00188973 0.00132281 -0.000377945
-0.00245664 0.00188973 0
-0.0020787 0.00075589 0.000566918
-0.000188973 0.000377945 -0.000944863
0.000566918 -0.00453534 -0.000377945
0.000377945 -0.000377945 -0.00170075
0.00245664 0.00075589 -0.0211649
-0.00075589 -0.00075589 -0.00188973
-0.0096376 -0.00529123 -0.020598
-0.00680301 -0.00661404 -0.00510226
0.00982658 0.0075589 -0.00113384
0.00907068 0.00661404 -0.0149288
0.00113384 0 0.0107714
-0.000188973 -0.00812582 0.00226767
0.000377945 -0.000188973 0.0107714
-0.000566918 0.0096376 0.0219208
0.0396842 0.0548021 0.418763
-0.0190862 0.380402 -0.285349
-0.0260782 -0.39552 -0.214484
-0.00245664 0.00869274 0.0166296
-0.00812582 0.0149288 -0.0241885
-0.0253223 0.0330702 0.0128501
-0.000566918 -0.000944863 -0.00113384
-0.00226767 0.00226767 -0.00075589
-0.00321253 0.00321253 0.000188973
-0.00264562 0.00151178 0.000944863
0.00075589 0.000188973 -0.00302356
Vibration 14
-0.00321253 -0.00529123 -0.0313695
-0.00245664 -0.0103935 -0.0183303
0.00113384 -0.0124722 0.0255113
0.00510226 -0.0102045 0.0432747
0.00661404 -0.00491329 0.013795
0.00226767 -0.00188973 -0.00850377
0.0103935 -0.00377945 -0.00151178
0.00170075 0.0147399 0.00642507
0.00113384 0.0376055 0.0268341
-0.0115273 -0.00113384 -0.0430858
-0.02759 -0.00548021 -0.041574
-0.0198421 -0.0100155 -0.0192752
0.00377945 -0.00907068 -0.000188973
0.00529123 0.00396842 -0.0117163
-0.00188973 0.00604712 -0.0326923
0.0319364 -0.0258892 0.0425188
0.00132281 -0.00453534 0.034393
0.0147399 0.00774788 0.0338261
0.0141729 0.0170075 0.0162516
-0.00170075 0.0119053 -0.00151178
-0.0158737 0.00907068 0.00925966
-0.0141729 0.00075589 0.02759
-0.00302356 0.00434637 -0.0398732
-0.020976 0.0234326 0.0096376
0.00793685 -0.0020787 0.00151178
0.00925966 -0.00264562 -0.00075589
0.00888171 -0.0075589 -0.00340151
0.00585815 0.00170075 0.000188973
-0.00472431 -0.0103935 -0.00566918
0.00925966 -0.0134171 -0.0062361
0.00566918 -0.00340151 -0.00491329
0.00151178 0.0120942 -0.00075589
0.00188973 0.0141729 0.00188973
-0.00472431 -0.027779 -0.013984
0.0113384 0.00699199 0.00113384
-0.0230547 0.000188973 -0.00774788
-0.00472431 -0.0115273 -0.0366607
0.00944863 -0.00226767 -0.0120942
-0.0444086 -0.0075589 -0.0559359
-0.0281569 -0.0154958 -0.0154958
0.0162516 0.00982658 -0.00151178
0.00396842 0.0130391 -0.0379835
0.0262672 0.00850377 0.0428968
0.0266451 0.0255113 0.013606
-0.0287238 0.0107714 0.00151178
-0.0257003 -0.00377945 0.0338261
-0.0132281 -0.00793685 -0.134548
0.0272121 -0.0684081 -0.00226767
-0.0236216 0.0765339 -0.0141729
-0.00925966 0.0107714 0.0377945
-0.0177634 0.0270231 -0.0642507
-0.0710537 0.0653845 0.0364717
0.0120942 -0.0239995 -0.00925966
0.00585815 -0.00680301 -0.00699199
-0.00188973 0.0224877 0.000566918
-0.00113384 0.0253223 0.00453534
-0.0360938 -0.00718096 -0.0145509
Vibration 15
-0.00529123 0.000566918 -0.00340151
-0.00491329 0.000188973 0.0062361
-0.00396842 -0.000377945 0.000566918
-0.00377945 0 -0.0188973
-0.00264562 -0.000188973 -0.027779
-0.00434637 0.00075589 -0.013606
0.00132281 0.00188973 -0.0599043
-0.00510226 0.0041574 0.00075589
-0.00604712 0.00907068 0.0185193
-0.00642507 0.000944863 -0.0020787
-0.00812582 0.0020787 -0.00359048
-0.00529123 0.000566918 -0.0020787
-0.00113384 -0.00226767 0.000566918
-0.00245664 -0.00170075 -0.000188973
-0.00491329 -0.000377945 -0.00132281
0.0062361 -0.0062361 0.00491329
-0.00434637 0.00604712 0.0111494
-0.00264562 0.0132281 0.0170075
-0.00283459 0.0130391 0.0120942
-0.00566918 0.00453534 0.000944863
-0.00736993 0.00718096 0.00566918
-0.00680301 0.00850377 0.0111494
-0.0062361 -0.0102045 -0.020976
-0.00377945 -0.0020787 -0.00302356
0.00377945 -0.00283459 -0.0332592
-0.00661404 0.0272121 -0.0168186
-0.00321253 0.0472432 -0.00604712