[Molden Format]
[FREQ]
16.9
21.7
28.8
33.8
43.5
49.4
52.4
56.5
65.7
72.1
86.8
116.8
127.4
131.9
143.5
150.7
158.0
179.5
192.1
200.2
221.2
232.3
235.6
249.7
256.6
275.8
288.6
298.4
311.6
316.9
321.2
336.7
358.1
367.8
372.6
395.3
406.9
420.0
423.8
455.0
470.9
499.3
507.0
527.7
531.2
542.7
549.5
568.7
582.1
604.6
611.0
613.9
623.0
632.6
647.4
659.4
671.6
676.5
687.7
695.1
708.0
739.0
755.9
782.1
791.6
797.3
819.2
835.3
853.8
868.8
882.4
885.9
901.5
904.0
933.5
947.1
953.9
980.8
1009.5
1010.4
1011.9
1014.0
1018.7
1022.6
1033.4
1037.2
1047.8
1070.3
1081.2
1088.0
1110.1
1125.8
1127.2
1166.8
1176.9
1177.2
1185.7
1199.9
1217.7
1237.0
1256.9
1264.8
1266.6
1268.3
1277.2
1279.4
1281.5
1285.5
1293.7
1301.7
1320.8
1321.8
1324.3
1340.0
1348.4
1348.6
1359.9
1365.3
1374.0
1383.1
1384.2
1394.6
1406.3
1427.4
1502.9
1518.9
1529.6
1543.0
1544.8
1549.3
1582.3
1592.8
1622.5
1682.1
1694.9
1695.7
1698.6
1705.4
1707.6
1717.1
1722.2
1731.3
1886.7
2451.0
2650.6
2652.9
2663.2
2670.8
2730.9
2740.2
2744.1
2744.7
2745.1
2746.9
2750.1
2754.6
2755.9
2756.4
2757.0
2762.2
2764.1
2766.7
2767.8
2777.5
2778.1
       
[FR-COORD]
C -2.51428 -2.72782 0.729812
C 0.147588 -2.72782 0.729812
C 1.5063 -0.487171 0.729812
N 0.295175 1.78806 0.6272
C -2.37198 1.8782 0.71375
C -3.7889 -0.429535 0.729434
N -3.24749 4.23147 0.730757
C -6.4519 -0.276089 0.697498
N -8.63661 -0.142863 0.669719
C -3.86336 -5.13911 0.73208
C -3.27452 -6.96232 -1.10228
C -4.5567 -9.24 -1.16161
C -6.4417 -9.69864 0.657058
C -7.03186 -7.91927 2.51371
C -5.72984 -5.63535 2.53223
O -7.54209 -11.993 0.387016
C 4.28269 -0.59961 0.852644
C 5.63781 -1.44526 -1.24873
C 8.25319 -1.66353 -1.10965
C 9.52176 -1.05995 1.12949
C 8.14831 -0.236216 3.23181
C 5.53312 -0.0115273 3.10028
C 12.317 -1.33358 1.29068
C -9.5879 -12.5848 2.02692
C -1.14687 6.33927 0.682002
C 1.42353 4.39966 0.759103
C 2.88977 5.08185 -1.56545
C 1.45584 6.5908 -3.21027
C -1.06996 7.19305 -2.16374
C 5.37892 4.51739 -2.1369
C 6.39332 5.38704 -4.41912
C 4.93729 6.81095 -6.08567
C 2.44379 7.44325 -5.47718
O -2.77998 8.16758 -3.2713
O 2.64807 4.60318 3.02073
O -1.45263 7.92608 2.32039
H 1.15802 -4.52136 0.788583
H 4.50397 4.61849 2.83213
H -1.81527 -6.5668 -2.50634
H -4.14814 -10.6686 -2.58137
H -8.48392 -8.27719 3.91721
H -6.17544 -4.22599 3.97523
H 4.64891 -1.92261 -2.99351
H 9.31314 -2.31699 -2.74766
H 9.12908 0.211649 4.98604
H 4.45408 0.60339 4.75436
H 13.1835 0.0784236 2.54584
H 13.2494 -1.15141 -0.556146
H 12.8322 -3.20668 2.04355
H -10.1459 -14.4719 1.36193
H -11.1447 -11.2431 1.78201
H -8.95673 -12.6699 3.99431
H 6.55168 3.41889 -0.854345
H 8.34692 4.94333 -4.88872
H 5.74703 7.45346 -7.86428
H 1.29654 8.59428 -6.74594
H -5.03669 4.70825 1.20073

[FR-NORM-COORD]
Vibration 1
-0.00661404 -0.00302356 -0.0111494
-0.00661404 -0.00245664 -0.013606
-0.00736993 -0.00226767 -0.0134171
-0.0075589 -0.0020787 -0.0096376
-0.00774788 -0.00302356 -0.0145509
-0.00718096 -0.00340151 -0.0147399
-0.00850377 -0.00321253 -0.0168186
-0.00718096 -0.0041574 -0.0173855
-0.00718096 -0.00510226 -0.0200311
-0.00604712 -0.00340151 -0.00188973
-0.00850377 -0.0100155 0.00396842
-0.00642507 -0.0115273 0.0160627
-0.0020787 -0.00604712 0.0219208
-0.000377945 0.00113384 0.0154958
-0.00245664 0.00245664 0.00340151
0.000377945 -0.00869274 0.034393
-0.00699199 -0.00113384 -0.0188973
-0.0105825 0.0168186 -0.0283459
-0.0100155 0.0179524 -0.0349599
-0.0062361 0.00188973 -0.0326923
-0.00283459 -0.0153068 -0.0238105
-0.00340151 -0.0168186 -0.0170075
-0.00566918 0.00340151 -0.0402512
0.00604712 -0.00510226 0.0428968
-0.0096376 -0.00321253 -0.0096376
-0.00850377 -0.00245664 0.00718096
0.0113384 0.00774788 0.0230547
0.0211649 0.00548021 0.0120942
0.00907068 -0.00642507 -0.0102045
0.0200311 0.0211649 0.0472432
0.0393063 0.0317474 0.0599043
0.0495108 0.0285349 0.048188
0.0402512 0.0153068 0.0241885
0.0134171 -0.0166296 -0.0257003
-0.0289128 -0.0109604 0.0190862
-0.0185193 -0.000377945 -0.013984
-0.00604712 -0.00226767 -0.0156847
-0.0272121 -0.0122832 0.0362827
-0.0119053 -0.0143619 -0.00075589
-0.00812582 -0.0168186 0.020976
0.00264562 0.00566918 0.0198421
-0.00113384 0.00812582 -0.00151178
-0.0134171 0.0300466 -0.0302356
-0.0126612 0.0317474 -0.0421409
0.000188973 -0.027779 -0.0224877
-0.00075589 -0.0304246 -0.0103935
-0.0041574 -0.000188973 -0.0370386
-0.00982658 0.0105825 -0.041574
-0.00245664 0.00132281 -0.0478101
0.00793685 -0.00907068 0.0531013
0.00283459 -0.00907068 0.0408181
0.0115273 0.00529123 0.041574
0.0122832 0.0236216 0.0565028
0.0462983 0.0423299 0.0789905
0.0646286 0.0364717 0.0580146
0.047999 0.0130391 0.0153068
-0.0100155 -0.00359048 -0.0217318
Vibration 2
0.000566918 0.00283459 0.0202201
0.000566918 0.00340151 0.00925966
-0.000377945 0.00396842 0.0100155
-0.00170075 0.00359048 0.0162516
-0.00151178 0.00283459 0.0241885
-0.000377945 0.00226767 0.0355268
-0.0020787 0.00264562 0.0151178
-0.00075589 0.00113384 0.0616051
-0.00113384 0.000377945 0.0861715
0.000566918 0.00264562 0.00925966
-0.0124722 0.0217318 -0.013984
-0.0162516 0.0243775 -0.0313695
-0.00642507 0.0075589 -0.0255113
0.00869274 -0.0126612 -0.00132281
0.0119053 -0.0145509 0.0160627
-0.0132281 0.0132281 -0.0457314
0 0.00718096 0.00245664
-0.00434637 0.00982658 -0.00132281
-0.00340151 0.0158737 -0.00907068
0.00188973 0.0198421 -0.0130391
0.0062361 0.0170075 -0.00907068
0.00529123 0.0105825 -0.00132281
0.00321253 0.02759 -0.0219208
-0.00736993 0.000188973 -0.0432747
-0.0041574 0.0020787 -0.0151178
-0.00226767 0.00472431 0.00831479
0.00642507 -0.00680301 0.0105825
0.00491329 -0.0315584 -0.0109604
-0.00283459 -0.0357158 -0.0272121
0.0134171 0.00510226 0.0296687
0.0196532 -0.00982658 0.0268341
0.0185193 -0.0366607 0.00510226
0.0109604 -0.0472432 -0.0141729
-0.00680301 -0.0636838 -0.0457314
-0.0132281 0.0156847 0.0130391
-0.00283459 0.0255113 -0.0374166
0.00113384 0.00359048 0
-0.0124722 0.0122832 0.0222988
-0.0202201 0.0349599 -0.0183303
-0.0272121 0.0394953 -0.0496998
0.0173855 -0.0264562 0.0041574
0.0230547 -0.0298577 0.034204
-0.00850377 0.0075589 0.00151178
-0.00680301 0.0177634 -0.0120942
0.0103935 0.0196532 -0.0122832
0.00888171 0.00812582 0.00170075
0.00302356 0.0281569 -0.0226767
-0.00302356 0.0328812 -0.0245664
0.0107714 0.0279679 -0.0262672
-0.0175745 0.0105825 -0.0640617
-0.00396842 0.00888171 -0.0187083
0.0020787 -0.0264562 -0.0474321
0.0141729 0.0253223 0.0464873
0.0253223 -0.000566918 0.0417629
0.0234326 -0.0489439 0.00283459
0.0100155 -0.0674632 -0.0315584
-0.000377945 0.00585815 0.0175745
Vibration 3
-0.0126612 0.0130391 -0.0158737
-0.0128501 0.00869274 -0.0226767
-0.00944863 0.00661404 -0.0130391
-0.0062361 0.00831479 -0.00661404
-0.0062361 0.0124722 -0.00359048
-0.0096376 0.0143619 -0.00113384
-0.00188973 0.013984 -0.00359048
-0.0096376 0.0164406 0.020409
-0.00982658 0.0173855 0.0408181
-0.0117163 0.0122832 -0.0192752
-0.0311805 0.0285349 -0.0417629
-0.0179524 0.0211649 -0.0355268
0.0164406 -0.00302356 -0.00604712
0.0309915 -0.0160627 0.0109604
0.0160627 -0.00718096 0.00359048
0.0328812 -0.0119053 0.00245664
-0.0102045 -0.000566918 -0.00491329
-0.00491329 -0.00302356 -0.000188973
-0.00680301 -0.0177634 0.0117163
-0.0141729 -0.0302356 0.0192752
-0.0192752 -0.0249444 0.013795
-0.0173855 -0.00982658 0.00170075
-0.0170075 -0.0502667 0.0338261
0.0780457 -0.0457314 0.0462983
0.0020787 0.0105825 -0.00472431
-0.00170075 0.0062361 -0.00434637
0.000566918 0.00359048 -0.00359048
0.00396842 0.00642507 -0.00396842
0.00434637 0.0102045 -0.00491329
-0.000377945 -0.00170075 -0.00283459
0.0020787 -0.00340151 -0.00245664
0.00548021 -0.000188973 -0.00264562
0.00642507 0.00472431 -0.00340151
0.0062361 0.0126612 -0.00585815
-0.00226767 0.00321253 -0.00377945
0.00453534 0.0117163 -0.00529123
-0.0156847 0.00661404 -0.0332592
-0.0020787 -0.00548021 -0.00245664
-0.0557469 0.0466762 -0.062172
-0.0325033 0.0328812 -0.0514005
0.0540462 -0.0326923 0.0304246
0.0272121 -0.0166296 0.0160627
0.00075589 0.00566918 -0.00585815
-0.00264562 -0.020598 0.0154958
-0.0251334 -0.0332592 0.0192752
-0.0217318 -0.0062361 -0.00245664
-0.0132281 -0.0542351 0.0357158
-0.00604712 -0.0602823 0.0383614
-0.034393 -0.0525344 0.0398732
0.0880612 -0.0504557 0.0512116
0.0548021 -0.0653845 0.0867384
0.12321 -0.0453534 0.0317474
-0.00321253 -0.00453534 -0.00264562
0.00113384 -0.0075589 -0.0020787
0.00736993 -0.00151178 -0.00226767
0.00925966 0.00718096 -0.00377945
-0.000566918 0.0173855 -0.00170075
Vibration 4
-0.0119053 0.013984 0.0149288
-0.0115273 0.0122832 0.0215429
-0.00869274 0.0102045 0.0160627
-0.00585815 0.0113384 0.0147399
-0.00585815 0.0141729 0.0128501
-0.00907068 0.0156847 0.0103935
-0.00245664 0.0153068 0.0102045
-0.00850377 0.0213539 -0.000566918
-0.00812582 0.027401 -0.0102045
-0.00699199 0.0115273 0.00718096
0.0377945 -0.000377945 0.0325033
0.055369 -0.00982658 0.0283459
0.0251334 -0.0075589 -0.00226767
-0.0239995 0.00604712 -0.0309915
-0.0391173 0.0147399 -0.0253223
0.0502667 -0.0196532 -0.000377945
-0.00850377 0.00359048 0.00510226
-0.0226767 -0.0041574 -0.00113384
-0.0234326 -0.0175745 -0.013606
-0.00982658 -0.0228657 -0.0196532
0.00472431 -0.0124722 -0.0143619
0.00510226 0.00075589 -0.0020787
-0.0107714 -0.0402512 -0.0328812
0.0258892 -0.0226767 -0.0319364
0.000566918 0.0128501 0.00226767
-0.00226767 0.0102045 0.00907068
-0.00075589 0.000377945 0.00718096
0.000188973 -0.00604712 0.000377945
0.00113384 0.00132281 -0.00151178
-0.00113384 -0.0041574 0.00982658
-0.000944863 -0.0164406 0.00529123
-0.000188973 -0.0238105 -0.00151178
0.000566918 -0.0183303 -0.0041574
0.0020787 -0.00132281 -0.00529123
-0.00302356 0.0143619 0.00888171
0.00226767 0.0198421 -0.00434637
-0.0126612 0.0117163 0.0283459
-0.00283459 0.00396842 0.0100155
0.0604712 -0.00245664 0.055369
0.0920297 -0.0194642 0.048566
-0.0495108 0.00907068 -0.0563138
-0.075778 0.0232436 -0.0449755
-0.0336371 -0.000377945 0.00396842
-0.034393 -0.0241885 -0.0179524
0.0154958 -0.0154958 -0.0196532
0.0162516 0.00812582 0.00245664
0.00340151 -0.0521564 -0.0292908
-0.0175745 -0.0364717 -0.0359048
-0.0188973 -0.0474321 -0.0447865
0.0582036 -0.0360938 -0.0211649
0.0166296 -0.041574 -0.0763449
-0.0102045 0.00604712 -0.0190862
-0.00188973 0.00132281 0.0151178
-0.00132281 -0.0202201 0.00736993
-0.000188973 -0.0338261 -0.00510226
0.00132281 -0.0236216 -0.0096376
-0.00188973 0.0190862 0.00869274
Vibration 5
-0.0111494 0.00359048 -0.00377945
-0.0113384 -0.00302356 0.00888171
-0.0062361 -0.00604712 0.0143619
-0.00151178 -0.00321253 0.0154958
-0.00170075 0.00302356 0.00472431
-0.00661404 0.00585815 -0.00869274
0.0041574 0.00510226 0.0062361
-0.0062361 0.0096376 -0.0315584
-0.00566918 0.0115273 -0.0531013
-0.0158737 0.00585815 -0.0109604
-0.0257003 0.013984 -0.0219208
-0.0219208 0.0117163 -0.020598
-0.00642507 0.00113384 -0.00718096
-0.00113384 -0.00377945 -0.00075589
-0.00661404 -0.000377945 -0.00359048
0.00226767 -0.00359048 -0.00226767
-0.00642507 -0.0075589 0.0115273
-0.0126612 -0.0224877 0.0132281
-0.0102045 -0.00113384 -0.000377945
-0.000944863 0.0360938 -0.0154958
0.00472431 0.0408181 -0.013795
0.00188973 0.0175745 0.000188973
0.00377945 0.0727545 -0.0351489
0.034393 -0.0264562 0.0294797
0.0105825 0.000188973 0.0130391
0.0041574 -0.00585815 0.013984
0.00510226 -0.0145509 0.0117163
0.00812582 -0.0145509 0.00925966
0.0141729 0.00321253 0.013984
0.00188973 -0.0264562 0.00907068
-0.000566918 -0.0436527 0.00151178
0.00075589 -0.0470542 -0.00245664
0.00585815 -0.0309915 0.0020787
0.020787 0.0190862 0.0175745
0.00566918 -0.00774788 0.013606
0.0124722 -0.00170075 0.0151178
-0.0160627 -0.00548021 0.0117163
0.00510226 0.0147399 0.0103935
-0.0357158 0.0213539 -0.0302356
-0.0292908 0.0171965 -0.0283459
0.00736993 -0.0100155 0.0062361
-0.00283459 -0.00321253 0.000377945
-0.0194642 -0.047999 0.0239995
-0.0149288 -0.0107714 0.000566918
0.0113384 0.0640617 -0.0234326
0.00642507 0.0213539 0.0020787
-0.00604712 0.0801244 -0.0366607
-0.0120942 0.0912738 -0.041385
0.034204 0.0771008 -0.0451645
0.0432747 -0.0313695 0.0359048
0.0170075 -0.0419519 0.055369
0.0659514 -0.0224877 0.0194642
0.00132281 -0.0228657 0.0126612
-0.00396842 -0.0548021 -0.00132281
-0.0020787 -0.061794 -0.00907068
0.00793685 -0.0315584 -0.000377945
0.0041574 0.00907068 0.00188973
Vibration 6
-0.0156847 -0.00434637 -0.0062361
-0.0149288 -0.0102045 -0.0183303
-0.00888171 -0.0143619 -0.0173855
-0.00302356 -0.0107714 -0.0200311
-0.00226767 -0.00377945 -0.0102045
-0.00869274 -0.000188973 0.00661404
0.00396842 -0.00113384 -0.0160627
-0.00850377 0.0126612 0.0474321
-0.00812582 0.0268341 0.0880612
-0.0164406 -0.00377945 -0.00434637
0.00736993 -0.0162516 0.0149288
0.0162516 -0.0211649 0.0183303
-0.00188973 -0.0141729 0.00151178
-0.0292908 -0.00075589 -0.0202201
-0.0355268 0.00302356 -0.0221098
0.0119053 -0.0215429 0.00907068
-0.00944863 -0.0151178 -0.00869274
0.00113384 -0.020787 0.00075589
0.00283459 0.000377945 0.00831479
-0.00661404 0.027401 0.00604712
-0.0181414 0.0239995 0
-0.0194642 0.00151178 -0.00699199
-0.00340151 0.0629279 0.0117163
-0.00359048 -0.0173855 -0.00888171
0.0107714 -0.00736993 -0.00736993
0.0041574 -0.0151178 -0.0162516
0.00699199 -0.00850377 -0.0126612
0.0153068 0.0109604 -0.0020787
0.0158737 0.0115273 -0.000944863
0.00491329 -0.0149288 -0.0153068
0.0117163 0.000377945 -0.00642507
0.020787 0.0228657 0.00510226
0.0224877 0.027779 0.00718096
0.0211649 0.0266451 0.0041574
0.00661404 -0.0262672 -0.0154958
0.0158737 -0.0156847 0.00226767
-0.0187083 -0.0124722 -0.0228657
0.00585815 0.00302356 -0.0192752
0.020409 -0.0222988 0.0264562
0.0370386 -0.0308025 0.0340151
-0.0447865 0.0062361 -0.034393
-0.054991 0.0105825 -0.0351489
0.00888171 -0.0391173 0.00151178
0.0113384 -0.00226767 0.0149288
-0.0255113 0.0400622 0
-0.0285349 0.000188973 -0.0120942
-0.0211649 0.0976988 -0.0149288
-0.00472431 0.0387394 0.00869274
0.0188973 0.0837149 0.047999
0.0154958 -0.027401 0.00377945
-0.00869274 -0.0291018 -0.0408181
-0.0264562 0.00642507 -0.000377945
-0.00132281 -0.0311805 -0.0234326
0.0102045 -0.00491329 -0.00812582
0.0262672 0.0364717 0.0124722
0.0292908 0.0444086 0.0162516
0.0062361 0.00396842 -0.0115273
Vibration 7
-0.00340151 0.00264562 -0.0196532
-0.00283459 -0.00132281 -0.0268341
0.000188973 -0.00359048 -0.0160627
0.00377945 -0.00113384 -0.000566918
0.00434637 0.00283459 0.00812582
0.000566918 0.00491329 -0.00510226
0.00925966 0.00396842 0.0311805
0.000944863 0.0132281 -0.00472431
0.00151178 0.0224877 -0.00548021
-0.00680301 0.00491329 -0.0188973
0.00132281 -0.00699199 -0.00472431
0.00377945 -0.00850377 0.00566918
-0.00321253 0.00170075 0.00113384
-0.0153068 0.0154958 -0.0158737
-0.0164406 0.0160627 -0.0255113
0.00340151 -0.00302356 0.0156847
0 -0.0020787 -0.00982658
0.0153068 0.0534792 -0.0215429
0.0160627 0.0627389 -0.0113384
0 0.0145509 0.0105825
-0.0160627 -0.0432747 0.0228657
-0.0158737 -0.0496998 0.0119053
0.000566918 0.0272121 0.0215429
0.00472431 0.00170075 0.0190862
0.0122832 0.000377945 0.0132281
0.0102045 -0.00283459 0.00736993
0.00453534 -0.00283459 0.00377945
-0.00736993 -0.0196532 -0.00151178
-0.00377945 -0.0187083 0.00604712
0.00718096 0.0102045 0.00302356
-0.0041574 -0.000566918 -0.0062361
-0.0179524 -0.0243775 -0.0143619
-0.0192752 -0.0325033 -0.0115273
-0.0128501 -0.0332592 0.00736993
0.0126612 -0.00982658 0.00510226
0.0238105 0.00982658 0.00548021
-0.00510226 -0.00302356 -0.0391173
0.013606 -0.0585815 0.00718096
0.00680301 -0.0153068 -0.00151178
0.0115273 -0.0181414 0.0173855
-0.0228657 0.0251334 -0.0213539
-0.0243775 0.0251334 -0.0366607
0.027779 0.0907068 -0.0387394
0.0287238 0.107525 -0.020976
-0.0285349 -0.0820141 0.0396842
-0.0281569 -0.089384 0.0183303
-0.013606 0.020787 0.0385504
0.00925966 0.048377 0.0281569
0.00680301 0.0232436 0.00774788
0.0156847 -0.00774788 0.0368497
-0.0020787 -0.00888171 0.00396842
0.00245664 0.0241885 0.020787
0.0177634 0.0291018 0.00944863
-0.0020787 0.0096376 -0.00718096
-0.027401 -0.0351489 -0.0226767
-0.0292908 -0.048188 -0.0168186
0.0120942 0.00604712 0.0385504
Vibration 8
-0.00113384 -0.00132281 0.00245664
-0.00113384 -0.00151178 0.00302356
-0.000944863 -0.00170075 0.00113384
-0.00075589 -0.00170075 -0.00434637
-0.000566918 -0.00132281 -0.00472431
-0.00075589 -0.00113384 0.00075589
-0.000566918 -0.00113384 -0.0102045
-0.000944863 -0.000944863 0.00699199
-0.000944863 -0.000566918 0.013795
-0.000944863 -0.00151178 0.00302356
-0.000377945 -0.00113384 0.00264562
0 -0.00113384 0.00170075
-0.000566918 -0.00188973 0.00113384
-0.00075589 -0.00245664 0.00170075
-0.000944863 -0.00226767 0.00264562
-0.000377945 -0.00170075 -0.000188973
-0.00113384 -0.00113384 0.00453534
0.00132281 -0.000377945 0.00491329
0.000566918 0.00340151 0.00699199
-0.00075589 0.00585815 0.00869274
-0.00245664 0.00188973 0.0075589
-0.00377945 -0.000944863 0.00510226
-0.000188973 0.00245664 -0.00831479
-0.00151178 -0.0020787 -0.00170075
0.000188973 -0.00113384 -0.00491329
-0.000377945 -0.00188973 -0.00548021
0.000188973 -0.00132281 -0.00491329
0.00264562 0.00340151 -0.00283459
0.00321253 0.00510226 -0.00264562
-0.000377945 -0.00359048 -0.00566918
0.00113384 -0.00113384 -0.00396842
0.00359048 0.00396842 -0.00170075
0.00434637 0.0062361 -0.000944863
0.00585815 0.0117163 -0.000944863
0 -0.00170075 -0.00548021
-0.00151178 -0.00472431 -0.00170075
-0.00113384 -0.00151178 0.00548021
0 -0.00132281 -0.00585815
0 -0.000566918 0.00321253
0.000566918 -0.00075589 0.00151178
-0.000944863 -0.00302356 0.00132281
-0.00132281 -0.00302356 0.00302356
0.00264562 -0.00170075 0.00472431
0.00472431 0.00491329 0.00925966
-0.00680301 0.00264562 0.0096376
-0.00510226 -0.00226767 0.00472431
-0.0294797 -0.330513 0.38437
0.020787 0.513816 0.0514005
0.00907068 -0.196343 -0.508714
-0.000944863 -0.0020787 -0.00264562
-0.00132281 -0.0020787 -0.00245664
-0.00283459 -0.00264562 -0.00132281
-0.00188973 -0.00680301 -0.00699199
0.000566918 -0.00302356 -0.00434637
0.00491329 0.0062361 -0.000188973
0.0062361 0.0102045 0.000944863
-0.00075589 -0.00075589 -0.0113384
Vibration 9
0.00302356 -0.000944863 0.00661404
0.00264562 0.00377945 0.00604712
-0.00264562 0.00680301 0.00188973
-0.0062361 0.0041574 -0.00434637
-0.00642507 0 -0.0196532
-0.00151178 -0.00340151 -0.00302356
-0.0107714 -0.000944863 -0.0487549
-0.00226767 -0.0126612 0.0115273
-0.00302356 -0.0234326 0.0272121
0.0096376 -0.00472431 0.0130391
0.00604712 0.00075589 0.00642507
0.00718096 0.000188973 0.00340151
0.0115273 -0.00510226 0.00661404
0.0211649 -0.013795 0.0179524
0.0200311 -0.0130391 0.0211649
0.00604712 -0.00151178 -0.00188973
-0.00245664 0.00869274 0.000566918
-0.0020787 0.048188 -0.0149288
-0.00188973 0.0464873 -0.0185193
-0.00321253 0.00321253 -0.0062361
-0.0041574 -0.0364717 0.00907068
-0.00396842 -0.0317474 0.0117163
-0.00340151 0.00113384 -0.00831479
-0.0179524 0.0115273 -0.0270231
-0.0103935 0.00510226 -0.00831479
-0.00982658 0.00699199 0.00264562
-0.000566918 0.00113384 0.00699199
0.00736993 -0.000188973 -0.00075589
0.0173855 0.0366607 0.00302356
-0.00226767 -0.0107714 0.0117163
-0.00264562 -0.0427078 -0.000377945
0 -0.0570697 -0.0149288
0.00699199 -0.0311805 -0.0126612
0.0447865 0.0973209 0.013984
-0.0217318 0.0103935 0.0075589
-0.034204 -0.0158737 0.00736993
0.00642507 0.00604712 0.00925966
-0.0196532 -0.0442196 0.0215429
0.00132281 0.00585815 0.00302356
0.00321253 0.00491329 -0.00226767
0.0289128 -0.020787 0.0241885
0.0260782 -0.0185193 0.0283459
-0.00170075 0.0806913 -0.0241885
-0.00132281 0.0784236 -0.0308025
-0.00453534 -0.0704868 0.0179524
-0.00434637 -0.0591484 0.0211649
-0.000566918 0.0173855 -0.0283459
-0.00529123 -0.0251334 -0.0117163
-0.00434637 0.0107714 0.0164406
-0.0325033 0.0219208 -0.0447865
-0.000377945 0.0304246 -0.0340151
-0.0383614 -0.00812582 -0.0213539
-0.00245664 0.00453534 0.0247554
-0.00529123 -0.0565028 0.00132281
-0.00245664 -0.0861715 -0.0264562
0.0119053 -0.034771 -0.020598
-0.0141729 -0.00302356 -0.0578256
Vibration 10
-0.00944863 0 0.0419519
-0.00925966 -0.00529123 0.0587705
-0.00548021 -0.00793685 0.0287238
-0.000377945 -0.00661404 -0.00359048
-0.000188973 -0.000566918 0.00170075
-0.00510226 0.00188973 0.0145509
0.00510226 0.00113384 -0.00699199
-0.00472431 0.00359048 -0.00793685
-0.00453534 0.00302356 -0.0298577
-0.0117163 0.00075589 0.0340151
-0.0111494 0.0173855 0.0173855
-0.00944863 0.0173855 -0.00264562
-0.00680301 -0.000944863 -0.00434637
-0.0075589 -0.0175745 0.0113384
-0.0111494 -0.0149288 0.0294797
-0.00264562 -0.000377945 -0.0264562
-0.00510226 -0.00888171 0.0215429
-0.0102045 0.0234326 0.00566918
-0.00888171 0.0304246 -0.0062361
-0.00359048 0.00283459 -0.00188973
0.000377945 -0.034393 0.0154958
-0.000566918 -0.0377945 0.0264562
-0.00151178 0.0166296 -0.0162516
0.0175745 -0.0334482 -0.013795
0.0100155 -0.00302356 -0.0113384
0.00699199 -0.00925966 -0.0185193
0.00188973 -0.00793685 -0.0219208
0.00510226 0.00661404 -0.0115273
0.0041574 -0.00113384 -0.0102045
0.0020787 -0.00396842 -0.0258892
0.00642507 0.0198421 -0.0149288
0.0107714 0.0396842 -0.00188973
0.00925966 0.0313695 -0.000566918
0.000188973 -0.00604712 -0.00831479
0.0170075 -0.00529123 -0.0245664
0.0177634 -0.00396842 -0.00925966
-0.0130391 -0.00642507 0.0867384
0.0170075 -0.048566 -0.0287238
-0.0117163 0.0309915 0.020787
-0.00982658 0.0306136 -0.0162516
-0.00642507 -0.0317474 0.00888171
-0.0141729 -0.0257003 0.0389284
-0.0145509 0.0444086 0.00245664
-0.0122832 0.0578256 -0.0194642
0.00491329 -0.0583925 0.0190862
0.00321253 -0.0597153 0.0364717
-0.00170075 0.0328812 -0.0340151
-0.0122832 0.00396842 -0.0228657
0.0119053 0.0262672 -0.00170075
0.0238105 -0.0292908 -0.0308025
0.0062361 -0.0410071 0.0171965
0.0372276 -0.0525344 -0.020976
0.000377945 -0.0166296 -0.0351489
0.00718096 0.0241885 -0.0162516
0.0151178 0.0610381 0.00793685
0.0111494 0.0445975 0.00982658
0.00585815 0.0062361 -0.00869274
Vibration 11
-0.0168186 0.0105825 -0.00831479
-0.0170075 0.00283459 -0.0128501
-0.0119053 -0.000944863 -0.0102045
-0.00680301 0.00170075 -0.0041574
-0.00680301 0.0096376 0.00434637
-0.0126612 0.0122832 -0.00472431
0.00396842 0.0130391 0.0222988
-0.0122832 0.0147399 -0.0141729
-0.0120942 0.0147399 -0.0268341
-0.00982658 0.00642507 -0.00226767
-0.0239995 0.0194642 -0.0196532
0.000566918 0.00548021 -0.00264562
0.0370386 -0.0185193 0.0287238
0.0531013 -0.0317474 0.0462983
0.0287238 -0.0173855 0.0304246
0.061794 -0.0334482 0.0476211
-0.0128501 -0.00642507 -0.00736993
-0.00944863 -0.0111494 -0.00302356
-0.00925966 -0.00661404 0.00188973
-0.013795 0.00321253 0.00188973
-0.0183303 0.00226767 -0.00075589
-0.0181414 -0.00321253 -0.00510226
-0.0126612 0.0162516 0.00472431
-0.0514005 0.0330702 -0.0697309
0.0147399 0.00434637 0.00718096
0.00453534 -0.00434637 -0.00113384
0.00377945 -0.00472431 -0.0020787
0.00377945 -0.00113384 0.000944863
0.00340151 -0.00604712 0.00283459
0.00264562 -0.00661404 -0.00453534
0.00302356 -0.00170075 -0.00245664
0.00434637 0.00491329 0.0020787
0.00453534 0.00453534 0.00340151
-0.00434637 -0.0213539 0.00151178
0.0107714 -0.0171965 -0.00245664
0.0308025 0.0122832 0.00245664
-0.0217318 0 -0.0171965
0.00982658 0.00245664 -0.00907068
-0.05518 0.0408181 -0.0461093
-0.0103935 0.0141729 -0.0145509
0.0863605 -0.0555579 0.0748331
0.0410071 -0.0257003 0.0419519
-0.0062361 -0.0170075 -0.00302356
-0.00548021 -0.00944863 0.00548021
-0.0217318 0.00642507 0.000188973
-0.0224877 -0.00359048 -0.0075589
-0.020976 0.0173855 0.00944863
-0.0115273 0.0257003 0.0062361
-0.00434637 0.0170075 0.000566918
-0.0684081 0.0470542 -0.0946753
0.00132281 0.0772898 -0.162327
-0.16554 0.0217318 -0.0336371
0.00170075 -0.0117163 -0.00774788
0.00226767 -0.00302356 -0.00434637
0.00491329 0.00982658 0.0041574
0.00529123 0.00850377 0.0062361
0.0075589 0.020409 0.0270231
Vibration 12
0.00680301 -0.00359048 -0.0192752
0.00642507 -0.00245664 0.0041574
0.00736993 -0.0020787 0.0289128
0.00944863 -0.00075589 0.0245664
0.00925966 -0.00510226 -0.00188973
0.00793685 -0.00359048 -0.0107714
-0.00188973 -0.00869274 -0.0192752
0.00850377 0.00925966 0.00245664
0.0096376 0.0313695 0.0238105
0.000944863 -0.000188973 -0.0328812
-0.0120942 -0.0020787 -0.034204
-0.0119053 -0.00359048 -0.0192752
0.00264562 -0.000944863 -0.00377945
0.00359048 0.0096376 -0.013606
0.00396842 0.00850377 -0.0268341
0.0185193 -0.0132281 0.0326923
0.00736993 -0.013795 0.0374166
-0.00510226 -0.0124722 0.027779
-0.00453534 -0.0102045 0.00774788
0.0115273 -0.0115273 -0.00075589
0.0228657 -0.0360938 0.0162516
0.0211649 -0.0336371 0.034393
0.0170075 0.0226767 -0.0364717
-0.0113384 0.0230547 0.00925966
-0.0187083 0.00151178 -0.00604712
-0.00226767 0.00793685 0.00585815
-0.00907068 -0.00302356 -0.00151178
-0.00226767 0.0105825 0.00510226
-0.0075589 0.00075589 -0.00472431
-0.0153068 -0.020787 -0.0117163
-0.0130391 -0.0158737 -0.00869274
-0.00170075 0.0128501 0.00604712
0.00321253 0.0249444 0.0128501
-0.0105825 -0.0154958 -0.0149288
-0.00340151 0.0478101 -0.000377945
-0.0377945 -0.00226767 -0.00642507
0.00548021 -0.00321253 0.00264562
-0.000944863 -0.0634948 0.00812582
-0.0217318 -0.00453534 -0.0445975
-0.0198421 -0.0075589 -0.0175745
0.00699199 0.0166296 -0.00812582
0.00944863 0.013795 -0.0302356
-0.0168186 -0.00907068 0.0332592
-0.0156847 -0.00321253 -0.00245664
0.0338261 -0.0504557 0.013795
0.0326923 -0.0428968 0.0445975
0.0153068 0.0398732 -0.0546131
-0.0100155 0.0272121 -0.0498888
0.0521564 0.0330702 -0.0355268
0.00529123 0.00510226 0.0461093
-0.00888171 0.0141729 -0.0546131
-0.0495108 0.0731324 0.0238105
-0.020598 -0.0357158 -0.0200311
-0.0187083 -0.0323143 -0.0168186
0.00245664 0.0236216 0.0119053
0.0100155 0.0430858 0.0230547
-0.00869274 -0.0171965 -0.0338261
Vibration 13
0.000188973 -0.0141729 0.0102045
0.00302356 -0.0122832 0.0105825
0.0096376 -0.0154958 -0.00302356
0.0122832 -0.0124722 -0.0120942
0.0154958 -0.0166296 -0.0162516
0.0075589 -0.0126612 -0.00548021
0.000566918 -0.0211649 -0.027401
0.0119053 0.0608492 -0.00925966
0.0200311 0.191429 -0.0134171
-0.000188973 -0.0149288 0.0170075
-0.00604712 -0.0103935 0.00982658
-0.00793685 -0.00869274 0.00302356
-0.00283459 -0.0166296 0.00680301
0.0107714 -0.0268341 0.020787
0.00736993 -0.0234326 0.0221098
-0.0126612 -0.0096376 -0.0132281
0.0109604 -0.0107714 -0.00604712
0.0160627 -0.0132281 -0.00151178
0.0166296 -0.0103935 0.00226767
0.0143619 -0.0020787 0.00113384
0.0107714 0.00907068 -0.00548021
0.0105825 0.00321253 -0.00888171
0.013606 -0.00718096 0.00925966
-0.00736993 -0.0239995 -0.0124722
-0.0187083 -0.013984 -0.00548021
-0.00113384 -0.00510226 0.000188973
-0.00188973 0.0100155 0.00604712
-0.0179524 -0.0185193 -0.00661404
-0.0115273 -0.00453534 -0.00113384
0.00925966 0.0455424 0.0198421
0.00359048 0.0489439 0.0185193
-0.0192752 -0.00245664 -0.00585815
-0.0315584 -0.0379835 -0.0198421
-0.00226767 0.0236216 0.00888171
-0.0149288 -0.00661404 0.00642507
-0.034771 -0.0262672 0.00340151
0.00075589 -0.0134171 0.0198421
-0.013984 0.00396842 0.0173855
-0.00907068 -0.0062361 0.00736993
-0.0143619 -0.00188973 -0.00585815
0.0217318 -0.0364717 0.0296687
0.0100155 -0.0268341 0.0257003
0.0196532 -0.0202201 -0.00151178
0.0185193 -0.0151178 0.00548021
0.00831479 0.020409 -0.00699199
0.00869274 0.00812582 -0.0117163
0.0128501 -0.0103935 0.0132281
0.0194642 -0.00736993 0.0120942
0.0075589 -0.00907068 0.00888171
-0.0334482 -0.00264562 -0.0519675
0.00472431 -0.00226767 0.0317474
0.00831479 -0.075778 -0.0198421
0.0185193 0.0665184 0.0294797
0.0158737 0.0874943 0.0334482
-0.0266451 -0.0120942 -0.0126612
-0.0495108 -0.0752111 -0.0374166
-0.0041574 -0.0328812 -0.0281569
Vibration 14
0.00151178 -0.00529123 0.00642507
0.00170075 -0.00604712 0.0247554
0.00302356 -0.00566918 0.0200311
0.00321253 -0.00604712 0.000944863
0.00302356 -0.00491329 -0.000188973
0.00302356 -0.0041574 0.00226767
0.00377945 -0.00453534 -0.0062361
0.00245664 -0.013984 0.00434637
0.00113384 -0.0338261 0.0103935
-0.0141729 0.0020787 -0.0100155
-0.0317474 0.00982658 -0.0228657
-0.0323143 0.00944863 -0.020409
-0.0147399 -0.000377945 -0.00491329
-0.0247554 0.00793685 -0.0160627
-0.020409 0.00529123 -0.0149288
0.02759 -0.0258892 0.0360938
0.00434637 0.00642507 0.0171965
-0.00151178 0.0111494 0.0117163
-0.00132281 0.00982658 0.00264562
0.00642507 0.00510226 -0.000566918
0.0149288 0.0194642 -0.00075589
0.013984 0.0185193 0.00869274
0.00396842 -0.0236216 -0.00396842
-0.0103935 -0.00510226 -0.00340151
0.00680301 -0.00718096 -0.00472431
0.00529123 -0.00680301 -0.00642507
0.00321253 -0.00151178 -0.00680301
-0.0096376 -0.0241885 -0.0166296
0.000566918 -0.0041574 -0.0041574
0.0158737 0.0379835 0.00869274
0.0153068 0.0531013 0.013795
-0.00453534 0.00812582 -0.00736993
-0.0192752 -0.0338261 -0.0245664
0.0105825 0.0319364 0.0122832
0.0100155 -0.00944863 -0.00793685
0.0117163 -0.00888171 -0.0020787
0.000377945 -0.0062361 0.0370386
0.00907068 0.0202201 -0.0134171
-0.041574 0.013984 -0.0317474
-0.0400622 0.0132281 -0.0266451
-0.0306136 0.0128501 -0.020787
-0.0194642 0.00491329 -0.0141729
-0.00718096 0.0117163 0.0145509
-0.0075589 0.00907068 -0.00113384
0.0215429 0.0272121 -0.00642507
0.020598 0.0251334 0.0107714
0.0213539 -0.0315584 -0.00736993
0.00359048 -0.0376055 -0.00548021
-0.0164406 -0.0285349 -0.00170075
0.0659514 -0.0531013 0.069164
-0.0370386 -0.0580146 -0.124911
-0.0799354 0.107147 0.0236216
0.0249444 0.0563138 0.0162516
0.0296687 0.096376 0.0323143
-0.00774788 0.00925966 -0.00850377
-0.0351489 -0.0657625 -0.0391173
0.00434637 -0.00321253 -0.00604712
Vibration 15
0.00396842 -0.00736993 0.00925966
0.00548021 -0.00396842 0.0124722
0.00359048 -0.00226767 0.00529123
-0.000566918 -0.00434637 0.00151178
0.000566918 -0.00680301 -0.000566918
0.00283459 -0.00831479 0.00377945
-0.00264562 -0.00812582 -0.00925966
0.00359048 0.00529123 0.00075589
0.00529123 0.0328812 -0.0020787
-0.00359048 -0.0041574 0.00359048
-0.0154958 0.00151178 -0.00585815
-0.0198421 0.00377945 -0.00944863
-0.0109604 -0.00283459 -0.0020787
-0.0122832 -0.00132281 -0.00396842
-0.00718096 -0.00396842 0.000377945
0.00812582 -0.013984 0.0122832
0.00548021 0.0219208 -0.00453534
0.00869274 0.0487549 -0.0134171
0.00944863 0.0534792 -0.0151178
0.00718096 0.0251334 -0.00604712
0.00888171 0.0423299 -0.0117163
0.00831479 0.0376055 -0.0100155
-0.00151178 -0.048188 0.0181414
-0.00585815 -0.0113384 -0.00434637
-0.00264562 -0.00774788 0.00264562
-0.00226767 -0.00510226 0.00188973
0.00151178 -0.00529123 0.00340151
0.0132281 0.0183303 0.0149288