[Molden Format]
[FREQ]
-11.6
20.1
25.1
27.3
32.6
37.2
43.4
47.7
61.3
61.7
73.0
82.1
91.5
96.1
116.8
124.4
140.0
151.9
166.4
188.5
190.2
205.2
233.0
241.8
251.5
275.2
282.0
291.1
307.5
311.5
334.0
345.5
353.5
356.9
361.4
371.4
375.8
399.8
437.7
451.8
456.4
488.5
501.2
524.0
536.1
539.1
542.6
550.8
570.6
571.5
586.9
615.1
615.8
631.6
641.7
657.4
671.3
693.8
700.3
711.5
733.6
741.1
761.2
782.5
786.2
805.3
832.5
845.8
872.1
884.6
885.7
897.0
902.9
935.3
941.0
949.0
970.6
995.7
1002.6
1007.8
1008.8
1015.1
1015.5
1035.7
1040.8
1045.8
1066.0
1070.4
1075.3
1081.5
1126.2
1130.3
1159.0
1181.5
1181.8
1183.1
1186.2
1191.6
1211.1
1248.5
1259.4
1264.0
1274.5
1275.3
1285.9
1288.8
1292.7
1297.5
1300.7
1316.5
1325.2
1327.5
1330.8
1337.7
1343.0
1350.0
1352.1
1357.1
1370.1
1380.2
1389.8
1391.8
1399.4
1424.1
1436.6
1468.2
1522.1
1525.9
1528.6
1538.0
1569.2
1581.7
1592.8
1695.1
1699.2
1702.3
1703.7
1708.4
1710.6
1719.0
1766.1
1819.2
1909.0
2427.2
2633.0
2652.7
2655.9
2669.0
2675.9
2706.0
2737.2
2746.1
2747.6
2749.8
2752.4
2754.3
2754.6
2757.6
2758.1
2765.7
2766.3
2769.0
2770.0
2773.9
2780.5
       
[FR-COORD]
C -1.11966 -2.73821 0.396087
C 1.61383 -2.73821 0.396087
C 2.92756 -0.535926 0.396087
N 1.57679 1.81981 0.376244
C -0.890439 1.67543 1.40936
C -2.34591 -0.55728 1.06637
N -1.29824 3.45877 3.48976
C -5.01647 -0.435771 1.31695
N -7.18984 -0.314261 1.58076
C -2.42282 -5.04311 -0.379268
C -1.85136 -6.10363 -2.74199
C -3.10406 -8.24676 -3.57007
C -4.94655 -9.33619 -1.99895
C -5.51592 -8.33445 0.369252
C -4.23318 -6.17562 1.16521
O -6.03635 -11.4156 -3.04605
C 5.69129 -0.371331 0.417063
C 6.92736 1.42825 1.90503
C 9.55313 1.55751 1.91089
C 10.9678 -0.105069 0.425755
C 9.73266 -1.89955 -1.06599
C 7.10764 -2.03127 -1.07525
C 13.781 0.062361 0.400622
C -8.05137 -12.5574 -1.68979
C -4.13699 3.55646 4.0272
C -0.535548 6.09342 2.55944
C -1.19657 6.68264 -0.0706758
C -0.0818251 5.40594 -2.08947
C 1.86592 3.37807 -1.76104
C -2.98785 8.57312 -0.503234
C -3.68761 9.15043 -2.97235
C -2.58363 7.87109 -4.99681
C -0.77063 6.01405 -4.56123
O 3.65908 3.20195 -3.16454
O 0.442385 7.3928 4.1196
O -4.3664 2.90338 6.37934
H 2.56493 -4.56085 0.440117
H -0.16743 2.9697 5.06428
H -0.421598 -5.21111 -3.93139
H -2.69891 -9.08902 -5.39744
H -6.92339 -9.1869 1.58699
H -4.65345 -5.36796 3.01203
H 5.82999 2.73859 3.04907
H 10.5018 2.968 3.06457
H 10.8228 -3.1874 -2.23744
H 6.15049 -3.40736 -2.27069
H 14.5452 0.811826 2.17829
H 14.4243 1.32489 -1.12363
H 14.6783 -1.7822 0.0857936
H -8.63737 -14.0807 -2.97216
H -9.60321 -11.2202 -1.40218
H -7.38014 -13.3384 0.10299
H -3.84257 9.58375 1.07299
H -5.10245 10.6012 -3.32365
H -3.14072 8.32613 -6.92603
H 0.123399 5.02308 -6.13915
H -6.05166 2.69116 7.13258

[FR-NORM-COORD]
Vibration 1
0.00377945 0.00888171 0.00321253
0.00396842 0.00359048 0.00548021
0.00850377 0.000944863 0.00907068
0.0122832 0.00321253 0.0122832
0.0128501 0.00434637 0.0143619
0.00699199 0.00982658 0.00661404
0.0171965 0.00699199 0.0109604
0.00661404 0.0147399 0.000566918
0.00585815 0.0162516 -0.0075589
0.000377945 0.0130391 -0.00340151
0.00264562 0.0160627 -0.00434637
0 0.0202201 -0.0105825
-0.00585815 0.0215429 -0.0164406
-0.00812582 0.0181414 -0.0156847
-0.00472431 0.013795 -0.00907068
-0.00907068 0.0266451 -0.0232436
0.00869274 -0.00377945 0.00831479
0.0119053 -0.000566918 0.00170075
0.0120942 -0.00377945 0
0.00925966 -0.0102045 0.00453534
0.00604712 -0.013984 0.0115273
0.00585815 -0.0107714 0.0134171
0.00925966 -0.0132281 0.00188973
-0.0130391 0.0272121 -0.0285349
0.0249444 -0.0213539 0.0536682
-0.0234326 0.0130391 -0.00812582
-0.0257003 -0.0149288 -0.013606
-0.00907068 -0.0166296 -0.00321253
0.00831479 0.00188973 0.0105825
-0.0447865 -0.0364717 -0.0292908
-0.0462983 -0.0595264 -0.034204
-0.0291018 -0.0610381 -0.0239995
-0.0105825 -0.0393063 -0.00850377
0.0151178 0.0132281 0.0179524
-0.0466762 0.0394953 -0.0154958
0.0685971 -0.00510226 0.062361
0 0.00151178 0.00340151
0.0449755 0.0268341 -0.0020787
0.00699199 0.0153068 0
0.00188973 0.0224877 -0.0113384
-0.0122832 0.0188973 -0.0200311
-0.00642507 0.0111494 -0.00831479
0.0141729 0.00491329 -0.00226767
0.0145509 -0.00113384 -0.00548021
0.00377945 -0.0192752 0.0151178
0.00377945 -0.013606 0.0183303
0.0115273 -0.0111494 0
0.00944863 -0.0164406 -0.00075589
0.00736993 -0.0145509 0.0041574
-0.0149288 0.0319364 -0.0332592
-0.0103935 0.0298577 -0.0266451
-0.0168186 0.0211649 -0.0298577
-0.0583925 -0.0351489 -0.0374166
-0.0606602 -0.0765339 -0.0461093
-0.0298577 -0.0793685 -0.0279679
0.00264562 -0.0402512 -0.000566918
0.0833369 -0.00982658 0.0931635
Vibration 2
0.00718096 -0.00869274 0.0181414
0.00718096 -0.00548021 0.013606
0.00434637 -0.00377945 0.00774788
-0.00075589 -0.00566918 0.000944863
0.00453534 -0.00793685 0.013606
0.00680301 -0.0105825 0.0247554
0.00453534 0.00453534 0.00264562
0.00850377 -0.0153068 0.0445975
0.0105825 -0.0177634 0.0642507
0.0075589 -0.00604712 0.0102045
0.0149288 0.000188973 0.00888171
0.0107714 0.00812582 -0.00510226
-0.00132281 0.0096376 -0.0181414
-0.00642507 0.000944863 -0.0158737
-0.00151178 -0.00718096 -0.00132281
-0.00680301 0.0200311 -0.0330702
0.00359048 0.00321253 0.00812582
-0.00188973 0.0268341 -0.0156847
-0.00226767 0.034204 -0.0156847
0.00340151 0.0173855 0.00831479
0.00925966 -0.00661404 0.0325033
0.0096376 -0.0134171 0.0321253
0.00283459 0.0253223 0.00850377
-0.0287238 0.0326923 -0.054991
0.00132281 0.0230547 -0.0151178
0.0236216 -0.00453534 -0.00831479
0.00661404 -0.00680301 -0.00453534
-0.0141729 -0.0185193 -0.00869274
-0.0179524 -0.0230547 -0.0145509
0.0115273 -0.000566918 0.00283459
-0.00548021 -0.00680301 0.0062361
-0.0272121 -0.0192752 0.00226767
-0.0315584 -0.0251334 -0.00548021
-0.0325033 -0.0383614 -0.0311805
0.048377 -0.0105825 -0.0190862
-0.0168186 0.0370386 -0.0132281
0.00907068 -0.00453534 0.0170075
-0.00661404 0.00604712 0.0107714
0.0232436 -0.000188973 0.0185193
0.0158737 0.013795 -0.00661404
-0.013984 0.000566918 -0.0249444
-0.00548021 -0.0141729 0.000944863
-0.00585815 0.0389284 -0.0332592
-0.00680301 0.0521564 -0.0338261
0.0134171 -0.0194642 0.0506447
0.0143619 -0.0321253 0.0498888
-0.000377945 0.0372276 0.00491329
-0.000188973 0.0190862 0.0020787
0.00888171 0.0264562 0.0187083
-0.034771 0.0461093 -0.0678412
-0.0173855 0.0468652 -0.0587705
-0.0498888 0.0158737 -0.0544241
0.0285349 0.00888171 0.00585815
-0.00188973 -0.00188973 0.0120942
-0.041196 -0.0243775 0.00510226
-0.048566 -0.0351489 -0.00888171
-0.0232436 0.0459203 -0.0241885
Vibration 3
0.0109604 -0.00774788 0.00283459
0.0109604 -0.00434637 -0.0020787
0.00680301 -0.00226767 0.00113384
0.00510226 -0.00321253 0.00226767
0.00529123 -0.0062361 0.00188973
0.00925966 -0.00907068 0.00510226
-0.00075589 -0.00151178 -0.00302356
0.0096376 -0.0134171 0.0120942
0.0102045 -0.0162516 0.0188973
0.00869274 -0.0075589 0.00604712
0.00434637 -0.0100155 0.0062361
-0.00642507 -0.00359048 0.00529123
-0.0128501 0.00566918 0.0041574
-0.00510226 0.00529123 0.00642507
0.00604712 -0.00188973 0.00736993
-0.0268341 0.0141729 0.00188973
0.00661404 0.00396842 0.00226767
0.00188973 -0.0445975 0.0644397
0.00170075 -0.0372276 0.0657625
0.00453534 0.020409 0.00396842
0.00793685 0.0699199 -0.0585815
0.00850377 0.0610381 -0.0589595
0.00396842 0.0291018 0.00434637
-0.0451645 0.0360938 -0.00699199
-0.00283459 0.00075589 -0.0132281
0.00188973 -0.00321253 -0.00604712
0.000377945 -0.00699199 -0.00661404
0.00188973 -0.00888171 -0.00434637
0.00434637 -0.00566918 0
-0.00264562 -0.0103935 -0.0096376
-0.00377945 -0.0162516 -0.0107714
-0.00245664 -0.0185193 -0.00850377
0.00075589 -0.0147399 -0.00548021
0.00510226 -0.00585815 0.00113384
0.00359048 -0.00245664 -0.00812582
-0.0122832 0.000944863 -0.0141729
0.0147399 -0.00245664 -0.00736993
-0.0062361 0.00113384 0.00132281
0.00831479 -0.0166296 0.0062361
-0.0107714 -0.00472431 0.00491329
-0.0075589 0.0103935 0.00699199
0.0120942 -0.00226767 0.00888171
-0.00132281 -0.0876833 0.11036
-0.00132281 -0.0748331 0.114139
0.0105825 0.114328 -0.105258
0.00982658 0.0995886 -0.104502
0.0041574 0.0160627 0.0096376
-0.000377945 0.0434637 0.0143619
0.00774788 0.0334482 -0.0119053
-0.0591484 0.0453534 -0.0115273
-0.0302356 0.0542351 -0.0100155
-0.0604712 0.0251334 -0.00604712
-0.00377945 -0.00869274 -0.0115273
-0.00604712 -0.0190862 -0.0132281
-0.00359048 -0.0232436 -0.00925966
0.00226767 -0.0162516 -0.00359048
-0.0156847 0.000377945 -0.0215429
Vibration 4
-0.00831479 0.00888171 -0.0096376
-0.00831479 0.00359048 -0.0164406
-0.00472431 0.00113384 -0.00850377
-0.00113384 0.00377945 -0.00434637
0.00188973 0.00472431 0.00396842
-0.00226767 0.00774788 0.00566918
0.0075589 0.0103935 -0.000188973
-0.000377945 0.00661404 0.0270231
0.00188973 0.00453534 0.0466762
-0.0115273 0.0124722 -0.0147399
-0.0285349 0.0311805 -0.027401
-0.0213539 0.0270231 -0.0272121
0.00321253 0.00396842 -0.0143619
0.0160627 -0.0109604 -0.00510226
0.00812582 -0.00585815 -0.00548021
0.0102045 0.000944863 -0.0153068
-0.00453534 -0.00377945 -0.000944863
-0.00548021 -0.0226767 0.0224877
-0.00510226 -0.0306136 0.0340151
-0.0041574 -0.0188973 0.0219208
-0.00377945 0.000944863 -0.00264562
-0.00396842 0.00850377 -0.013984
-0.00359048 -0.0289128 0.0364717
0.0680301 -0.0557469 0.0230547
0.00869274 0.0179524 0.00434637
0.0117163 0.00699199 -0.00793685
0.000944863 0.00359048 -0.00585815
-0.00869274 -0.00170075 -0.00793685
-0.00944863 -0.00302356 -0.0107714
0.00113384 0.00453534 -0.00226767
-0.00869274 0 -0.000566918
-0.0185193 -0.00548021 -0.00245664
-0.0187083 -0.00661404 -0.0062361
-0.0162516 -0.00925966 -0.0185193
0.0226767 0.00642507 -0.0145509
0.0122832 0.034393 0.00925966
-0.0115273 0.00170075 -0.0251334
0.00925966 0.0124722 -0.00075589
-0.0459203 0.0478101 -0.0357158
-0.0328812 0.0398732 -0.0357158
0.0317474 -0.0257003 0.00264562
0.0181414 -0.0171965 0.00170075
-0.00642507 -0.0313695 0.0313695
-0.00548021 -0.0453534 0.0525344
-0.00283459 0.0103935 -0.0122832
-0.00377945 0.0239995 -0.0321253
-0.00869274 -0.048188 0.0468652
0.00831479 -0.0173855 0.0510226
-0.00907068 -0.0294797 0.0238105
0.0772898 -0.0633058 0.02759
0.0417629 -0.0950532 0.0636838
0.126045 -0.0489439 0.0041574
0.00888171 0.00888171 -0.00075589
-0.00850377 0.00075589 0.00226767
-0.0262672 -0.00888171 -0.00113384
-0.0264562 -0.0109604 -0.00793685
0.0132281 0.0419519 0.013984
Vibration 5
-0.0109604 0.0041574 0.0243775
-0.0105825 0.00132281 0.0304246
-0.00850377 -0.000188973 0.0224877
-0.00510226 0.00132281 0.0190862
-0.00699199 0.00566918 0.0156847
-0.0096376 0.00680301 0.0175745
-0.0107714 0.0132281 0.00831479
-0.0100155 0.0113384 0.0109604
-0.0103935 0.0151178 0.0062361
-0.00491329 0.0041574 0.0147399
0.0262672 -0.000188973 0.0238105
0.0421409 -0.00510226 0.0132281
0.0262672 -0.00661404 -0.00642507
-0.00774788 -0.000377945 -0.0173855
-0.0230547 0.00491329 -0.00642507
0.0491329 -0.0153068 -0.0130391
-0.00793685 -0.00642507 0.00718096
0.00680301 -0.020598 0.0117163
0.00736993 -0.0262672 -0.00793685
-0.00793685 -0.0173855 -0.0323143
-0.0230547 -0.00396842 -0.0359048
-0.0232436 0.00132281 -0.0160627
-0.00774788 -0.0219208 -0.0559359
0.0268341 -0.0103935 -0.0423299
-0.0124722 0.020787 -0.00113384
-0.0041574 0.0096376 0.00283459
0.00075589 0.0041574 0.000566918
0.00245664 -0.00302356 0.00604712
-0.000377945 -0.00377945 0.0156847
0.0041574 0.00548021 -0.00793685
0.00925966 -0.00075589 -0.0109604
0.0105825 -0.00850377 -0.00529123
0.0075589 -0.0096376 0.00321253
0.00226767 -0.00869274 0.0194642
-0.00396842 0.0117163 0.00113384
-0.020409 0.041385 0.00377945
-0.0122832 0.000566918 0.0374166
-0.0166296 0.0171965 0.013795
0.0385504 0.000566918 0.0389284
0.0670853 -0.00850377 0.020409
-0.0215429 -0.000377945 -0.0332592
-0.0491329 0.00869274 -0.013984
0.0181414 -0.0268341 0.0298577
0.0192752 -0.0370386 -0.00453534
-0.034771 0.00264562 -0.0540462
-0.0357158 0.0122832 -0.0185193
0.00869274 -0.0228657 -0.0625499
-0.0185193 -0.0234326 -0.0616051
-0.013795 -0.0236216 -0.0631168
0.0476211 -0.0149288 -0.0464873
0.0221098 -0.00944863 -0.0723765
-0.00264562 -0.0041574 -0.0285349
0.00321253 0.0115273 -0.0124722
0.0120942 0.000377945 -0.0175745
0.0143619 -0.013606 -0.0075589
0.00888171 -0.0154958 0.0075589
-0.0228657 0.0514005 0.000944863
Vibration 6
-0.0041574 0.00396842 -0.0107714
-0.00359048 0.00510226 -0.0145509
-0.00396842 0.00529123 -0.0192752
-0.00453534 0.00434637 -0.020409
-0.000566918 0.00377945 -0.0109604
-0.00283459 0.00472431 -0.0103935
0.013606 -0.00226767 -0.00340151
-0.00245664 0.0107714 -0.0120942
-0.00264562 0.0175745 -0.0160627
-0.000377945 -0.000188973 -0.00434637
0.0302356 -0.0283459 0.0154958
0.0396842 -0.0368497 0.0230547
0.0173855 -0.0171965 0.0102045
-0.0153068 0.0120942 -0.0100155
-0.0232436 0.0192752 -0.0168186
0.034582 -0.0330702 0.0234326
-0.0041574 0.00396842 -0.0120942
-0.00793685 -0.0062361 0.00340151
-0.0075589 -0.0147399 0.020409
-0.00359048 -0.0122832 0.0215429
-0.000188973 0.00132281 0.00226767
-0.000377945 0.00925966 -0.0143619
-0.00264562 -0.0253223 0.0449755
-0.020598 0.0175745 -0.0158737
0.0185193 -0.00321253 0.0190862
0.0107714 -0.00075589 -0.00302356
-0.0020787 0.00453534 0.00151178
-0.0145509 0.00718096 -0.00736993
-0.0151178 0.00377945 -0.0221098
-0.0020787 0.00774788 0.0154958
-0.0147399 0.0143619 0.020598
-0.027401 0.0175745 0.0119053
-0.027779 0.013795 -0.0020787
-0.0253223 0.000566918 -0.034582
0.020787 -0.00472431 -0.00604712
0.0391173 0.00283459 0.0230547
-0.00264562 0.00548021 -0.0119053
0.0251334 -0.00604712 -0.0124722
0.0468652 -0.0432747 0.0239995
0.0642507 -0.0582036 0.0383614
-0.0328812 0.027401 -0.0194642
-0.0474321 0.0394953 -0.0311805
-0.0109604 -0.00869274 0.00302356
-0.0102045 -0.0236216 0.0336371
0.00302356 0.00472431 0.00151178
0.00226767 0.0190862 -0.027779
-0.0132281 -0.0408181 0.0561249
0.0158737 -0.0185193 0.0585815
-0.00907068 -0.02759 0.0404401
-0.00812582 0.0075589 -0.0096376
-0.00831479 0.0451645 -0.0780457
-0.0818251 0.0336371 0.0141729
0.00774788 0.00529123 0.0224877
-0.0149288 0.0170075 0.0315584
-0.0374166 0.0228657 0.0160627
-0.0383614 0.0158737 -0.00944863
0.0462983 0.00661404 0.0394953
Vibration 7
-0.0124722 -0.00907068 0.0062361
-0.0119053 -0.0126612 0.00661404
-0.0105825 -0.013795 0.00226767
-0.0102045 -0.013606 -0.00718096
-0.00831479 -0.00718096 -0.00245664
-0.0100155 -0.0075589 0.00680301
0.00831479 -0.0062361 -0.00075589
-0.00925966 -0.00661404 0.0160627
-0.00812582 -0.00774788 0.0241885
-0.0130391 -0.00774788 0.00283459
-0.00888171 -0.00434637 0.0020787
-0.00548021 -0.00434637 -0.00264562
-0.0062361 -0.00869274 -0.00661404
-0.0115273 -0.0115273 -0.00680301
-0.0151178 -0.0109604 -0.0020787
-0.00113384 -0.00944863 -0.0107714
-0.0111494 -0.00604712 0.00699199
-0.0222988 -0.000566918 0.0100155
-0.0232436 0.0190862 0.0062361
-0.013606 0.0330702 -0.000188973
-0.00245664 0.0241885 0.00151178
-0.00170075 0.0041574 0.00548021
-0.0153068 0.0599043 -0.00982658
0.00264562 -0.0183303 -0.0128501
0.0166296 -0.0183303 0.0430858
-0.0111494 -0.00321253 -0.0075589
0.00736993 -0.0041574 -0.0122832
0.00982658 -0.00491329 -0.0102045
-0.00793685 -0.0219208 -0.0117163
0.0291018 0.0156847 -0.0183303
0.05518 0.0364717 -0.020787
0.0589595 0.0366607 -0.0187083
0.0355268 0.0153068 -0.0128501
-0.0158737 -0.041574 -0.0198421
-0.034204 0.0102045 -0.00321253
0.0602823 0 0.0527234
-0.013795 -0.0132281 0.0111494
0.0313695 0.00075589 -0.013795
-0.00812582 -0.00132281 0.00510226
-0.00170075 -0.00170075 -0.00321253
-0.0130391 -0.013984 -0.0103935
-0.0194642 -0.0134171 -0.0020787
-0.0300466 -0.0109604 0.0141729
-0.0319364 0.0239995 0.0075589
0.00529123 0.0330702 -0.00113384
0.00642507 -0.00226767 0.0062361
-0.0160627 0.0667073 -0.0124722
-0.0330702 0.0667073 -0.0117163
0.00132281 0.068786 -0.013984
0.00850377 -0.0187083 -0.0149288
-0.0020787 -0.0241885 -0.0115273
0.00491329 -0.0181414 -0.013606
0.0268341 0.0166296 -0.0200311
0.0735103 0.0534792 -0.0243775
0.0812582 0.0538572 -0.020976
0.0391173 0.0147399 -0.0107714
0.075589 0.00188973 0.0861715
Vibration 8
0.00680301 0.000377945 0.000944863
0.00604712 0.0100155 -0.0151178
-0.000188973 0.013606 -0.0153068
-0.00566918 0.0105825 -0.00869274
-0.00453534 0.00472431 -0.00642507
0.00453534 -0.00434637 0.0124722
-0.00925966 0.00831479 -0.00869274
0.00774788 -0.0241885 0.0572587
0.0120942 -0.0436527 0.103935
0.0113384 -0.00377945 0.00604712
0.0096376 -0.00151178 0.00434637
0.0107714 -0.00188973 0.00396842
0.0130391 -0.00453534 0.00472431
0.0179524 -0.0096376 0.00793685
0.0173855 -0.0096376 0.00907068
0.0122832 -0.00377945 0.00377945
0.000188973 0.0100155 -0.0183303
0.00736993 0.0062361 -0.0200311
0.00831479 -0.0147399 -0.00850377
0.00245664 -0.0313695 0.00453534
-0.00510226 -0.0217318 -0.00113384
-0.00585815 -0.000377945 -0.0130391
0.00453534 -0.0627389 0.0268341
-0.0211649 0.0268341 -0.0200311
-0.0103935 -0.00548021 -0.0041574
-0.0300466 0.0128501 -0.00718096
-0.0156847 0.0113384 -0.0111494
-0.00245664 0.0170075 -0.00699199
-0.00321253 0.0171965 -0.00283459
-0.0117163 0.013606 -0.0187083
0.0075589 0.0236216 -0.0217318
0.0228657 0.0308025 -0.0179524
0.0170075 0.0270231 -0.0102045
0.00283459 0.0239995 0.00359048
-0.0572587 0.0257003 -0.000188973
-0.0075589 -0.0406291 -0.0141729
0.0119053 0.0126612 -0.0224877
-0.00510226 0.0143619 -0.00982658
0.00642507 0.00151178 0.00302356
0.00907068 0.000377945 0.00245664
0.0222988 -0.013795 0.0100155
0.0213539 -0.0143619 0.0119053
0.0122832 0.0177634 -0.0285349
0.0143619 -0.0192752 -0.00793685
-0.00982658 -0.0315584 0.00510226
-0.0111494 0.0062361 -0.0164406
-0.00132281 -0.0746442 0.034393
0.0311805 -0.0678412 0.034204
-0.013984 -0.0725655 0.0311805
-0.0306136 0.0370386 -0.027779
-0.00359048 0.0506447 -0.0359048
-0.0529123 0.0149288 -0.0134171
-0.0230547 0.00888171 -0.0213539
0.0117163 0.0262672 -0.0272121
0.0396842 0.0394953 -0.020787
0.0289128 0.0323143 -0.00699199
-0.00812582 -0.0636838 -0.0200311
Vibration 9
-0.0119053 0.00113384 -0.0291018
-0.0115273 -0.00491329 -0.0387394
-0.0041574 -0.00925966 -0.0179524
0.00264562 -0.00529123 -0.00510226
0.00132281 -0.00188973 -0.00925966
-0.00226767 0.000566918 -0.0075589
0.00453534 -0.00396842 -0.0041574
0.00151178 0.00264562 0.0338261
0.00699199 0.0062361 0.0784236
-0.0194642 0.00396842 -0.0255113
0.00264562 -0.0253223 -0.00718096
0.00661404 -0.0321253 0.00340151
-0.013984 -0.00982658 -0.00529123
-0.0436527 0.0243775 -0.0270231
-0.0449755 0.0287238 -0.0366607
-0.00113384 -0.0247554 0.0107714
-0.0041574 -0.0100155 -0.00585815
-0.0147399 -0.000944863 -0.00736993
-0.0156847 0.013606 -0.00453534
-0.00529123 0.0175745 0.00075589
0.0062361 0.00359048 0.00850377
0.00661404 -0.0103935 0.00510226
-0.00661404 0.0400622 -0.00226767
0.00188973 -0.0234326 0.0166296
0.00434637 0.00944863 -0.00699199
0.0117163 -0.00396842 0.000566918
0.00510226 -0.0020787 0.00264562
0.0190862 0.00680301 0.00491329
0.0272121 0.0171965 0.0156847
-0.0119053 -0.0194642 -0.000188973
-0.0120942 -0.0268341 -0.0020787
0.00529123 -0.0154958 0
0.0215429 0.00113384 0.00321253
0.0529123 0.0438416 0.0451645
0.0230547 -0.0113384 -0.00075589
-0.00151178 0.0141729 -0.00642507
-0.0164406 -0.00793685 -0.054991
0.00132281 -0.0105825 -0.00434637
0.0185193 -0.0438416 -0.00188973
0.0268341 -0.05518 0.0185193
-0.0636838 0.0461093 -0.0349599
-0.0651955 0.0496998 -0.0502667
-0.0226767 -0.00321253 -0.0122832
-0.0247554 0.0224877 -0.00793685
0.0145509 0.0041574 0.0154958
0.0160627 -0.020598 0.00944863
-0.0105825 0.0440306 -0.00226767
-0.0192752 0.0478101 -0.00132281
0.00831479 0.048188 -0.0062361
0.0253223 -0.0498888 0.0370386
-0.0130391 -0.0340151 -0.0151178
-0.00245664 0.0115273 0.0334482
-0.0251334 -0.0279679 -0.0020787
-0.0260782 -0.041385 -0.00510226
0.00548021 -0.0200311 -0.000944863
0.034582 0.0096376 0.00548021
-0.00453534 0.0202201 -0.0102045
Vibration 10
0.00548021 -0.0096376 -0.0187083
0.00491329 -0.00340151 -0.0226767
0.000944863 -0.000944863 -0.0122832
-0.00321253 -0.00321253 -0.00113384
-0.00548021 -0.0111494 -0.00661404
0.000566918 -0.013795 -0.0134171
-0.013606 -0.0173855 -0.00396842
-0.000188973 -0.0257003 -0.0134171
-0.00151178 -0.0408181 -0.0190862
0.00982658 -0.0145509 -0.0126612
-0.0154958 -0.00377945 -0.0234326
-0.0166296 -0.00661404 -0.0149288
0.00774788 -0.0198421 0.00434637
0.0374166 -0.0338261 0.0173855
0.0376055 -0.0306136 0.00831479
0.00264562 -0.0219208 0.0128501
0.000944863 0.00113384 -0.0111494
-0.000566918 0.00434637 -0.0134171
-0.000566918 0.00188973 -0.00774788
0.00151178 -0.00377945 0.00075589
0.00321253 -0.00491329 0.000566918
0.00321253 -0.0020787 -0.00566918
0.0020787 -0.0096376 0.0105825
-0.0402512 0.0260782 -0.0100155
-0.0132281 -0.00888171 -0.00188973
-0.013606 -0.0122832 0.00396842
-0.0111494 -0.00453534 0.00585815
0.0020787 0.00661404 0.00642507
0.00566918 0.0109604 0.0105825
-0.0156847 -0.00888171 0.00585815
-0.00434637 0 0.00472431
0.0113384 0.0134171 0.00472431
0.0141729 0.0162516 0.00548021
0.0181414 0.02759 0.0241885
-0.0141729 -0.0175745 0.00869274
0.00529123 0.161572 0.0478101
0.00869274 -0.00188973 -0.0328812
-0.0143619 -0.0100155 -0.000566918
-0.0351489 0.00718096 -0.0387394
-0.0370386 0.00226767 -0.0236216
0.0600933 -0.0472432 0.0340151
0.0593374 -0.0394953 0.0171965
-0.0020787 0.00793685 -0.0190862
-0.0020787 0.0041574 -0.00907068
0.00472431 -0.00812582 0.00566918
0.00491329 -0.00321253 -0.00566918
-0.00302356 -0.00699199 0.0117163
0.0103935 -0.0145509 0.0100155
-0.00075589 -0.0122832 0.0183303
-0.0651955 0.0430858 -0.0187083
-0.0102045 0.0636838 -0.0222988
-0.0769118 0.00604712 -0.00491329
-0.0266451 -0.0185193 0.00585815
-0.00736993 -0.00321253 0.00377945
0.0211649 0.0217318 0.00377945
0.0258892 0.0266451 0.00566918
0.0147399 0.224122 0.0833369
Vibration 11
-0.0190862 0.00888171 0.000944863
-0.0190862 0 0.00434637
-0.0126612 -0.0041574 0.00151178
-0.00642507 -0.00170075 -0.00680301
-0.00812582 0.0102045 -0.0100155
-0.013984 0.0120942 -0.00226767
0.00869274 0.00888171 -0.00302356
-0.0132281 0.0179524 0.00170075
-0.0120942 0.0232436 0.00774788
-0.0170075 0.00774788 0
-0.0402512 0.034771 -0.0179524
-0.020787 0.0215429 -0.0128501
0.0217318 -0.0171965 0.00982658
0.041574 -0.0402512 0.0243775
0.020976 -0.0257003 0.0192752
0.0508336 -0.0394953 0.0226767
-0.0128501 -0.00812582 0.00774788
-0.0164406 -0.00718096 0.00982658
-0.0170075 -0.000188973 0.00699199
-0.0147399 0.00566918 0.00245664
-0.0111494 -0.000188973 0.00680301
-0.0107714 -0.0075589 0.0096376
-0.0156847 0.020598 -0.00850377
-0.0294797 0.0287238 -0.0391173
0.0122832 0.0164406 0.00699199
0.0213539 0.0041574 -0.0062361
0.0103935 0.00359048 -0.00396842
0.0103935 0.00302356 -0.00396842
0.0119053 0.00585815 0.0020787
0.00188973 -0.00491329 -0.00377945
-0.00566918 -0.013984 -0.00396842
-0.00434637 -0.0134171 -0.00359048
0.00453534 -0.00491329 -0.00377945
0.0247554 0.0134171 0.0177634
0.0451645 -0.00434637 -0.0143619
0.013984 -0.0406291 -0.00850377
-0.0247554 -0.00302356 0.00888171
0.0124722 -0.00188973 -0.00907068
-0.0725655 0.0648176 -0.0340151
-0.0374166 0.0402512 -0.0251334
0.0748331 -0.0716206 0.0408181
0.0368497 -0.0419519 0.0298577
-0.0187083 -0.0109604 0.0117163
-0.0192752 0.00151178 0.00680301
-0.00888171 0.00170075 0.00680301
-0.00869274 -0.0113384 0.0122832
-0.0126612 0.0266451 -0.0124722
-0.0291018 0.0228657 -0.0122832
-0.00699199 0.0253223 -0.0105825
-0.0385504 0.0449755 -0.0540462
0.0041574 0.0784236 -0.0888171
-0.109226 0.0107714 -0.0170075
0.000566918 -0.00548021 -0.00434637
-0.0132281 -0.0215429 -0.0041574
-0.0107714 -0.0200311 -0.00340151
0.00510226 -0.00491329 -0.00340151
0.013606 -0.0561249 -0.0130391
Vibration 12
-0.00151178 -0.0119053 0.0391173
-0.00151178 -0.00075589 0.0389284
-0.0113384 0.00529123 -0.0020787
-0.0196532 -0.00321253 -0.0264562
-0.0196532 0.00529123 -0.0270231
-0.0105825 -0.00812582 0.00812582
0.00245664 -0.00226767 -0.0111494
-0.0115273 -0.0134171 -0.00302356
-0.0132281 -0.0194642 -0.013795
0.0075589 -0.0183303 0.0417629
0.0190862 -0.00888171 0.0400622
0.0113384 0.00491329 0.0177634
-0.00661404 0.00699199 -0.00151178
-0.00718096 -0.0120942 0.00642507
-0.000944863 -0.0228657 0.027779
-0.0291018 0.0374166 -0.0374166
-0.0115273 0.0120942 -0.0117163
-0.0120942 0.0122832 -0.0117163
-0.0119053 0.00548021 -0.00510226
-0.0126612 -0.000944863 0.00113384
-0.0132281 0.00661404 -0.00736993
-0.0134171 0.0128501 -0.013795
-0.0115273 -0.0171965 0.0213539
0.0181414 -0.0200311 -0.0164406
0.00812582 0.00302356 0.00774788
0.0151178 -0.00774788 -0.0134171
-0.00510226 -0.00132281 -0.0075589
0.00944863 0.0158737 -0.0107714
0.00907068 0.0168186 -0.00566918
-0.0239995 -0.0190862 -0.00132281
-0.0187083 -0.0100155 -0.00113384
0.00680301 0.0185193 -0.00510226
0.0198421 0.0296687 -0.0100155
0.0309915 0.0338261 0.0200311
0.0563138 -0.0226767 -0.0272121
0.0255113 -0.0041574 0.00831479
0.00680301 0.00434637 0.0663294
0.0103935 -0.013606 -0.020409
0.0317474 -0.00944863 0.0546131
0.0166296 0.0153068 0.0141729
-0.0160627 -0.0145509 -0.00585815
-0.0062361 -0.0330702 0.0309915
-0.0119053 0.0154958 -0.0154958
-0.0109604 0.00321253 -0.00321253
-0.0134171 0.00604712 -0.00680301
-0.0147399 0.0168186 -0.0171965
-0.0188973 -0.0561249 0.0410071
0.00585815 0.00812582 0.0498888
-0.0202201 -0.0164406 -0.00812582
0.0122832 -0.00226767 -0.0349599
0.00491329 -0.048566 0.0447865
0.068786 -0.0464873 -0.0470542
-0.0425188 -0.0394953 0.00151178
-0.0340151 -0.0239995 0.00264562
0.0147399 0.0300466 -0.00453534
0.0360938 0.048566 -0.0124722
0.0321253 -0.00434637 0.0215429
Vibration 13
-0.000188973 0.000566918 -0.00113384
-0.000188973 0.00226767 0.000377945
-0.00132281 0.00302356 0.000188973
-0.00245664 0.00226767 -0.00340151
-0.00245664 0.00113384 -0.00359048
-0.00132281 0 -0.00170075
-0.000188973 -0.000944863 -0.000566918
-0.00113384 -0.00151178 0.00075589
-0.000944863 -0.00321253 0.00359048
0.00113384 -0.000377945 -0.000566918
0.00264562 -0.00151178 0.000188973
0.0020787 -0.000944863 -0.000188973
0 0.000566918 -0.00151178
-0.000188973 0.00075589 -0.00170075
0.000188973 0.000377945 -0.00132281
-0.00264562 0.00283459 -0.00321253
-0.00132281 0.00283459 0.00491329
-0.00151178 -0.00359048 0.0113384
-0.000377945 -0.00302356 0.0117163
-0.00113384 0.00321253 0.00604712
-0.0020787 0.00566918 0.00170075
-0.00113384 0.00585815 0.000566918
-0.000377945 -0.0107714 -0.00888171
0.00377945 -0.00264562 0.00188973
0.000944863 -0.00075589 0.00302356
0.00188973 -0.00245664 -0.00226767
-0.00434637 -0.00188973 -0.00075589
0.00188973 0.00529123 -0.0020787
-0.00075589 0.00245664 -0.00302356
-0.0117163 -0.00850377 0.00170075
-0.00831479 -0.00302356 0.00188973
0.00340151 0.00982658 0.000188973
0.0075589 0.0134171 -0.00170075
-0.00170075 -0.000566918 -0.00396842
0.0132281 -0.00548021 -0.00699199
0.00434637 -0.00264562 0.00302356
0.000944863 0.00283459 0.00245664
0.00151178 -0.00264562 -0.00245664
0.00396842 -0.00245664 0.000944863
0.00283459 -0.00151178 0.000188973
-0.00113384 0.00151178 -0.0020787
-0.000566918 0.00075589 -0.00170075
-0.000944863 -0.00736993 0.0160627
-0.00264562 -0.00585815 0.0170075
0 0.00944863 -0.000377945
-0.00170075 0.0096376 -0.00340151
-0.00226767 0.436716 -0.198232
0.0202201 -0.404212 -0.325978
-0.0160627 -0.1011 0.467329
-0.00132281 0.00113384 -0.000377945
0.00396842 -0.00472431 0.0128501
0.0122832 -0.00774788 -0.00359048
-0.0196532 -0.0175745 0.00302356
-0.0141729 -0.00850377 0.00359048
0.00850377 0.0164406 0.000188973
0.0147399 0.0219208 -0.00302356
0.00548021 -0.00340151 0.00529123
Vibration 14
-0.00245664 -0.00888171 0.00888171
-0.0020787 -0.0075589 0.00566918
-0.00340151 -0.00680301 -0.00869274
-0.00491329 -0.0102045 -0.0160627
-0.00642507 0 -0.0192752
-0.00340151 -0.00566918 -0.00245664
0.00736993 0.00302356 -0.0177634
-0.00377945 -0.0107714 -0.00377945
-0.00453534 -0.0192752 -0.00642507
0.000188973 -0.0122832 0.0124722
0.00396842 -0.0103935 0.0122832
0.0020787 -0.0062361 0.00510226
-0.00396842 -0.00585815 -0.00132281
-0.00264562 -0.0126612 0.00188973
-0.00113384 -0.0154958 0.00850377
-0.0126612 0.00566918 -0.0147399
-0.00359048 -0.00396842 -0.00925966
-0.00925966 -0.00264562 -0.0062361
-0.00944863 0.00075589 -0.000377945
-0.00453534 0.00245664 0.00245664
0.00075589 0.00245664 -0.0020787
0.000944863 -0.000944863 -0.00793685
-0.00453534 0.00302356 0.0107714
0.000566918 -0.0120942 -0.0102045
0.0100155 0.00245664 -0.00434637
0.00472431 0.0117163 -0.000944863
0.0266451 0.0251334 -0.00188973
-0.020409 -0.0160627 -0.0020787
0.00718096 0.0103935 0.00434637
0.0744552 0.0706758 -0.0041574
0.041574 0.0417629 -0.00132281
-0.0462983 -0.0400622 0.0020787
-0.0712427 -0.0646286 0.00075589
0.0383614 0.0642507 0.0377945
-0.0302356 0.0107714 0.0224877
0.0243775 0.0020787 -0.00302356
-0.000944863 -0.00661404 0.013795
0.0124722 -0.00151178 -0.0221098
0.00793685 -0.0107714 0.0166296
0.00396842 -0.00283459 0.00396842
-0.00434637 -0.0143619 -0.00132281
-0.00264562 -0.0192752 0.00982658
-0.0132281 -0.0041574 -0.00831479
-0.013795 0.00170075 0.0020787
0.00510226 0.00491329 -0.000566918
0.00491329 -0.00170075 -0.0100155
-0.0115273 0.0489439 -0.00585815
0.0020787 -0.0362827 -0.0190862
-0.00377945 -0.00548021 0.062172
-0.00548021 -0.00132281 -0.0202201
-0.000566918 -0.0190862 0.0147399
0.0168186 -0.027401 -0.0228657
0.134171 0.124911 -0.0062361
0.0799354 0.0789905 -0.0020787
-0.0901399 -0.0788016 0.00566918
-0.127557 -0.116407 0.00226767
0.0298577 0.00321253 0.00907068
Vibration 15
-0.00377945 -0.00774788 0.0173855
-0.00188973 -0.0128501 -0.0020787
0.000944863 -0.0147399 -0.0132281
0.00377945 -0.0126612 0.00831479
0.00907068 -0.00793685 0.0181414
0.00340151 -0.00472431 0.0179524
0.00604712 -0.00321253 0.0122832
0.00359048 0.0219208 0.00642507
0.0041574 0.062361 -0.00699199
-0.0126612 -0.00245664 0.0147399
-0.0166296 0.00831479 0.00869274
-0.0126612 0.00888171 0.00245664
-0.00548021 -0.00359048 0.00226767
-0.00869274 -0.0096376 0.0041574
-0.0126612 -0.00850377 0.0102045
0.0109604 -0.0105825 -0.000944863
0.000188973 0.00642507 -0.0440306
-0.0130391 0.0255113 -0.0542351
-0.0145509 0.0332592 -0.0370386
-0.000188973 0.0192752 -0.00812582
0.0128501 0.0325033 -0.034393
0.0120942 0.0251334 -0.0521564
0.00302356 -0.020787 0.0714316
0 -0.0126612 -0.0194642
0.0020787 0.0062361 -0.00188973
0.000944863 -0.00245664 0.0120942
0.0105825 -0.00869274 0.00793685
0.0132281 -0.00888171 0.0102045
0.0062361 -0.0128501 0.00888171
0.00718096 -0.0128501 0.00170075