[Molden Format]
[FREQ]
6.9
22.1
27.2
28.7
32.1
36.6
42.1
48.1
61.5
79.8
81.0
108.4
118.8
131.3
132.8
139.3
152.2
180.2
186.3
219.1
231.7
235.3
257.2
260.4
265.6
272.0
304.9
314.9
317.8
342.3
350.0
353.1
358.3
375.4
378.3
405.1
412.9
436.1
460.3
477.3
489.7
507.1
511.0
522.0
539.4
549.6
556.3
563.8
579.4
585.3
610.8
614.9
629.2
629.7
637.1
663.7
671.2
683.1
695.3
722.2
733.7
742.1
765.7
777.0
790.9
824.5
846.2
853.8
866.5
880.7
883.0
895.0
900.7
921.9
927.6
947.0
950.1
974.7
1001.5
1007.1
1010.0
1010.7
1014.8
1018.5
1031.7
1043.1
1043.7
1070.8
1079.2
1082.1
1095.9
1126.4
1139.6
1157.0
1165.9
1178.1
1178.3
1184.2
1190.9
1216.5
1219.4
1244.2
1263.4
1269.7
1271.9
1277.5
1283.7
1286.6
1293.0
1296.8
1307.3
1307.4
1315.4
1321.9
1324.1
1337.3
1348.1
1351.3
1358.1
1371.3
1374.3
1387.2
1398.3
1427.1
1451.8
1477.2
1516.8
1519.0
1523.3
1535.9
1546.4
1585.7
1588.9
1615.0
1680.1
1697.9
1700.1
1707.4
1708.4
1720.7
1728.4
1729.9
1834.1
2450.5
2651.1
2654.1
2666.8
2673.5
2714.4
2740.2
2744.7
2745.9
2746.8
2748.4
2750.1
2751.0
2752.3
2756.0
2760.9
2764.7
2766.1
2766.3
2768.0
2769.8
2779.7
       
[FR-COORD]
C -1.98931 -3.06665 -0.721497
C 0.6769 -3.06665 -0.721497
C 1.98289 -0.815606 -0.721497
N 0.747576 1.48532 -0.716206
C -1.92317 1.61042 -0.771764
C -3.2628 -0.785559 -0.760804
N -3.34576 3.64547 -0.88647
C -5.94035 -0.705813 -0.82959
N -8.12752 -0.680112 -0.891951
C -3.31174 -5.49702 -0.678412
C -2.74691 -7.32155 -2.51674
C -3.9722 -9.6325 -2.50426
C -5.775 -10.1155 -0.611893
C -6.34929 -8.32859 1.24079
C -5.10793 -6.01065 1.18524
O -6.81964 -12.4469 -0.81107
C 4.77137 -0.802378 -0.647231
C 6.00234 -1.61779 1.53843
C 8.63 -1.60154 1.6382
C 10.0318 -0.790472 -0.448054
C 8.78685 0.00434637 -2.63881
C 6.16032 0.00604712 -2.7401
C 12.8454 -0.736615 -0.326545
C -8.77532 -13.0743 0.92143
C -2.97254 6.17279 -1.06146
C -0.273821 7.38467 -0.763638
C 0.911415 7.13693 1.76897
C 2.41016 4.93748 1.87404
C 2.47025 3.62506 -0.603767
C 0.644963 8.70276 3.83784
C 1.91618 8.04853 6.06753
C 3.40434 5.88328 6.17884
C 3.66947 4.3031 4.0699
O 1.27519 5.60285 -2.38937
O -0.0105825 9.72264 -1.80166
O -4.6423 7.67361 -1.47002
H 1.69981 -4.85149 -0.701088
H 2.81456 6.54941 -3.07024
H -1.34945 -6.90544 -3.97598
H -3.57933 -11.0664 -3.92137
H -7.74296 -8.70389 2.69626
H -5.54994 -4.58448 2.61274
H 4.91121 -2.26106 3.16246
H 9.59244 -2.21854 3.34519
H 9.87268 0.640806 -4.26265
H 5.18201 0.663294 -4.43046
H 13.5155 1.12042 0.33467
H 13.7262 -1.07695 -2.17526
H 13.6145 -2.15863 0.975666
H -9.31276 -14.9814 0.299711
H -10.3755 -11.7756 0.733781
H -8.05552 -13.1219 2.85897
H -0.522887 10.3971 3.74581
H 1.73061 9.25361 7.72577
H 4.3802 5.40046 7.92683
H 4.84601 2.6184 4.1574
H -1.54183 10.2028 -2.81475

[FR-NORM-COORD]
Vibration 1
-0.00472431 -0.0041574 0.00491329
-0.00491329 -0.00226767 0.013984
-0.0062361 -0.00132281 0.0115273
-0.00774788 -0.0020787 0.0041574
-0.0075589 -0.00396842 0.0100155
-0.00585815 -0.00491329 0.00226767
-0.0107714 -0.00491329 0.0270231
-0.00585815 -0.00680301 -0.0075589
-0.00548021 -0.00850377 -0.0166296
-0.00321253 -0.00510226 -0.00170075
0.00548021 -0.00340151 -0.00075589
0.00680301 -0.0041574 -0.00774788
-0.000944863 -0.00661404 -0.0154958
-0.00944863 -0.00831479 -0.0164406
-0.0105825 -0.0075589 -0.00944863
0.00132281 -0.00699199 -0.0217318
-0.00661404 -0.000188973 0.0171965
-0.0115273 -0.00529123 0.0181414
-0.0117163 -0.00340151 0.0251334
-0.00699199 0.00321253 0.0309915
-0.00188973 0.00774788 0.0296687
-0.00151178 0.00585815 0.0228657
-0.00736993 0.00566918 0.0381725
-0.00585815 -0.00944863 -0.0304246
-0.0168186 -0.00359048 0.0355268
-0.0134171 -0.00188973 -0.00340151
0.0175745 0.00812582 -0.0168186
0.0198421 0.00925966 -0.0264562
-0.00888171 0.000566918 -0.0226767
0.0421409 0.0162516 -0.0198421
0.0699199 0.0258892 -0.0328812
0.0718096 0.0266451 -0.0423299
0.0466762 0.0183303 -0.0393063
-0.0323143 -0.00736993 -0.0153068
-0.0264562 -0.00566918 -0.0154958
-0.0249444 -0.00359048 0.068975
-0.00359048 -0.00151178 0.0211649
-0.041385 -0.00907068 -0.0383614
0.0113384 -0.00151178 0.00529123
0.0134171 -0.00283459 -0.00718096
-0.0153068 -0.0103935 -0.0224877
-0.0171965 -0.00888171 -0.0102045
-0.0153068 -0.0103935 0.013795
-0.0158737 -0.00736993 0.0260782
0.00188973 0.0126612 0.034204
0.00226767 0.00982658 0.0221098
-0.0102045 0.0102045 0.0283459
-0.00264562 -0.00510226 0.0423299
-0.00925966 0.0143619 0.0487549
-0.00226767 -0.00907068 -0.034393
-0.00548021 -0.00982658 -0.0360938
-0.013984 -0.0107714 -0.02759
0.0400622 0.0153068 -0.0122832
0.089951 0.0325033 -0.0355268
0.0933525 0.0340151 -0.0523454
0.048377 0.0190862 -0.0466762
-0.0394953 -0.00869274 0.00340151
Vibration 2
0.00340151 -0.00548021 0.0234326
0.00359048 -0.00529123 0.0156847
0.00302356 -0.00529123 0.0162516
0.00283459 -0.00529123 0.020598
0.00264562 -0.00566918 0.0238105
0.00283459 -0.00566918 0.0351489
0.00321253 -0.00604712 0.0132281
0.00226767 -0.00585815 0.0559359
0.00170075 -0.00566918 0.075589
0.00302356 -0.00566918 0.0117163
-0.00642507 0.0111494 -0.00793685
-0.0117163 0.013984 -0.027401
-0.0075589 -0.000377945 -0.0270231
0.00453534 -0.0187083 -0.00566918
0.0096376 -0.020787 0.013606
-0.0160627 0.00529123 -0.0493218
0.00340151 -0.00359048 0.00869274
0.0105825 0.0245664 0.0151178
0.0107714 0.0258892 0.00585815
0.00377945 -0.000944863 -0.00925966
-0.00359048 -0.0289128 -0.0153068
-0.00396842 -0.0302356 -0.0062361
0.0041574 0 -0.0192752
-0.0171965 -0.00472431 -0.0544241
0.00434637 -0.00736993 -0.00774788
0.0041574 -0.00529123 -0.0134171
-0.00075589 0.0109604 -0.0096376
-0.00396842 0.0096376 0.00812582
0.00245664 -0.00566918 0.0168186
-0.00264562 0.0258892 -0.0211649
-0.00774788 0.0396842 -0.0141729
-0.0107714 0.0385504 0.00359048
-0.00888171 0.0234326 0.0151178
0.00699199 -0.0151178 0.000944863
0.00491329 -0.0119053 -0.0281569
0.00510226 -0.0107714 -0.0224877
0.00377945 -0.00529123 0.00944863
0.00907068 -0.0198421 -0.00075589
-0.0100155 0.0224877 -0.00831479
-0.0198421 0.027401 -0.0430858
0.00925966 -0.0306136 -0.0041574
0.0183303 -0.034582 0.0298577
0.0158737 0.0451645 0.0268341
0.0168186 0.048188 0.0105825
-0.00907068 -0.0498888 -0.0270231
-0.0096376 -0.0521564 -0.0115273
0.0062361 0.00283459 -0.0292908
-0.00151178 -0.00793685 -0.020409
0.00850377 0.00548021 -0.0154958
-0.0281569 0.00548021 -0.076156
-0.0107714 0.00585815 -0.0366607
-0.0147399 -0.0313695 -0.0559359
-0.000377945 0.0266451 -0.0351489
-0.00907068 0.0515895 -0.0230547
-0.0145509 0.0495108 0.00869274
-0.0111494 0.0226767 0.0291018
0.00642507 -0.0192752 -0.0338261
Vibration 3
-0.0103935 0.00944863 -0.0130391
-0.0105825 0.00604712 -0.0228657
-0.00774788 0.00434637 -0.0143619
-0.00491329 0.00585815 -0.0102045
-0.00510226 0.00907068 -0.0041574
-0.00831479 0.0105825 0.00302356
-0.00245664 0.0107714 -0.00529123
-0.00888171 0.0124722 0.0296687
-0.00944863 0.0134171 0.0546131
-0.0096376 0.00888171 -0.0153068
-0.034582 0.0260782 -0.0400622
-0.0249444 0.020976 -0.0364717
0.0117163 -0.00170075 -0.00736993
0.0334482 -0.0168186 0.013795
0.0217318 -0.0105825 0.00925966
0.0228657 -0.00699199 -0.00359048
-0.00793685 -0.00188973 -0.00340151
-0.0219208 -0.020787 -0.00264562
-0.0224877 -0.0309915 0.0111494
-0.00907068 -0.0217318 0.0239995
0.00491329 -0.00132281 0.0232436
0.00548021 0.00869274 0.0096376
-0.00925966 -0.0336371 0.0368497
0.0670853 -0.0357158 0.0357158
0.00113384 0.0100155 -0.00831479
0.00245664 0.00699199 -0.00566918
0.00188973 0.00340151 -0.00585815
-0.000566918 0.00151178 -0.00774788
-0.00226767 0.00340151 -0.00869274
0.00396842 0.00170075 -0.00434637
0.00321253 -0.00170075 -0.00510226
0.000566918 -0.00377945 -0.00699199
-0.00132281 -0.0020787 -0.00831479
0.000566918 0.00661404 -0.00718096
0.00529123 0.0075589 -0.00359048
0.00377945 0.0117163 -0.0128501
-0.0128501 0.00453534 -0.0334482
0.00170075 0.00529123 -0.00604712
-0.0612271 0.0432747 -0.0606602
-0.0438416 0.0334482 -0.0544241
0.0589595 -0.0332592 0.0340151
0.0383614 -0.0217318 0.0253223
-0.0325033 -0.0281569 -0.0124722
-0.0336371 -0.0464873 0.0119053
0.0156847 0.00642507 0.0336371
0.0162516 0.0243775 0.00944863
-0.00302356 -0.0253223 0.00718096
-0.00340151 -0.0702978 0.0462983
-0.0215429 -0.0145509 0.0648176
0.0712427 -0.0370386 0.0362827
0.0508336 -0.0495108 0.0786126
0.109793 -0.0404401 0.0196532
0.00585815 0.00321253 -0.00283459
0.00472431 -0.00302356 -0.00396842
-0.000188973 -0.00642507 -0.00736993
-0.00359048 -0.00377945 -0.00982658
0.00604712 0.00982658 -0.00396842
Vibration 4
0.00774788 -0.00925966 -0.00453534
0.00774788 -0.00888171 -0.0143619
0.00661404 -0.00812582 -0.0141729
0.00529123 -0.00850377 -0.0130391
0.00529123 -0.00944863 -0.00642507
0.00642507 -0.00982658 0.00151178
0.00396842 -0.0102045 -0.00680301
0.00604712 -0.0115273 0.0175745
0.00566918 -0.0128501 0.0321253
0.00396842 -0.00718096 0.00113384
-0.0238105 -0.00075589 -0.0134171
-0.0376055 0.0062361 -0.0134171
-0.0222988 0.00718096 0.00151178
0.00944863 -0.00075589 0.0190862
0.0222988 -0.00774788 0.0185193
-0.0419519 0.0164406 -0.00321253
0.00661404 -0.00132281 -0.00888171
0.00283459 -0.00831479 -0.00925966
0.0020787 0.0143619 0.00434637
0.00566918 0.0440306 0.0179524
0.0100155 0.0453534 0.0162516
0.0102045 0.0222988 0.00283459
0.0041574 0.0750221 0.0394953
-0.034204 0.0230547 0.00793685
0.00283459 -0.0102045 -0.00774788
0.00188973 -0.00907068 -0.00340151
0.00283459 -0.013984 -0.00453534
0.00566918 -0.0122832 -0.0102045
0.0041574 -0.00736993 -0.0128501
0.00188973 -0.0194642 -0.000377945
0.00359048 -0.0232436 -0.00264562
0.00642507 -0.0217318 -0.00850377
0.0075589 -0.0160627 -0.0124722
0.00226767 -0.00510226 -0.00793685
0.00075589 -0.00680301 0.00132281
0.00283459 -0.0111494 -0.0115273
0.00812582 -0.00869274 -0.0198421
0.00132281 -0.00283459 -0.00699199
-0.0359048 -0.00113384 -0.0249444
-0.0604712 0.0117163 -0.0251334
0.0234326 -0.00113384 0.0323143
0.0459203 -0.0130391 0.0309915
0.000188973 -0.0294797 -0.0192752
-0.00075589 0.0103935 0.00434637
0.0120942 0.0657625 0.0257003
0.0132281 0.0247554 0.00188973
-0.0264562 0.0425188 0.16195
0.0241885 0.203712 0.0257003
0.0122832 0.00302356 -0.0436527
-0.0582036 0.0328812 -0.00170075
-0.0230547 0.0400622 0.0306136
-0.0188973 0.00170075 0.00170075
-0.000377945 -0.020598 0.00434637
0.00264562 -0.027779 0.000566918
0.00774788 -0.0247554 -0.0100155
0.0096376 -0.0149288 -0.0170075
0.000566918 -0.00566918 0.00188973
Vibration 5
-0.00510226 0.00434637 0.00283459
-0.00491329 0.00359048 0.00491329
-0.00396842 0.00283459 0.00472431
-0.00283459 0.00321253 0.00510226
-0.00283459 0.00434637 0.00377945
-0.00396842 0.00491329 0.00245664
-0.00170075 0.00510226 0.00340151
-0.00396842 0.00642507 -0.000377945
-0.00377945 0.00774788 -0.00264562
-0.00340151 0.00340151 -0.000188973
0.00774788 0.0020787 0.00434637
0.0147399 -0.00151178 0.00396842
0.0100155 -0.00396842 -0.00113384
-0.00321253 -0.00188973 -0.0075589
-0.00982658 0.00188973 -0.00680301
0.0200311 -0.00869274 0.000566918
-0.00377945 -0.000566918 0.00151178
-0.0020787 -0.00245664 0.000566918
-0.00264562 -0.0109604 -0.00510226
-0.00340151 -0.0175745 -0.0096376
-0.00453534 -0.0143619 -0.00642507
-0.00566918 -0.00604712 -0.00075589
-0.00359048 -0.0321253 -0.000566918
0.0194642 -0.0141729 -0.00226767
-0.000377945 0.00472431 0.00151178
0.000377945 0.00396842 -0.00132281
0.000188973 0.00699199 -0.00075589
-0.00226767 0.00548021 0.00264562
-0.0020787 0.00245664 0.00434637
0.00188973 0.0105825 -0.00340151
0.000944863 0.0128501 -0.00226767
-0.00170075 0.0111494 0.00132281
-0.00340151 0.00736993 0.00396842
-0.000377945 0.00113384 0.00132281
0.00132281 0.00226767 -0.00453534
0 0.00529123 0.00188973
-0.00566918 0.00321253 0.00585815
0.000377945 -0.00075589 0.000566918
0.0115273 0.00377945 0.00831479
0.0241885 -0.00283459 0.00774788
-0.00812582 -0.00302356 -0.0124722
-0.0196532 0.00302356 -0.0111494
-0.00132281 0.00264562 0.00321253
0.00075589 -0.0122832 -0.0075589
-0.00774788 -0.0185193 -0.0102045
-0.00642507 -0.00377945 0.000566918
-0.0119053 -0.173477 0.405346
0.00869274 0.373032 -0.0682191
-0.00793685 -0.314261 -0.304813
0.0311805 -0.0188973 0.00188973
0.0130391 -0.0232436 -0.0096376
0.0151178 -0.00491329 -0.000377945
0.00377945 0.0119053 -0.0062361
0.00226767 0.0156847 -0.00434637
-0.00264562 0.0128501 0.00226767
-0.00548021 0.00604712 0.00680301
0.00132281 0.00170075 -0.00510226
Vibration 6
-0.0103935 -0.00075589 -0.0151178
-0.0102045 -0.00604712 -0.0105825
-0.00718096 -0.00831479 -0.00264562
-0.00302356 -0.0062361 0.00434637
-0.00245664 -0.000566918 -0.00226767
-0.00642507 0.00132281 -0.0141729
0.00226767 0.00283459 0.00283459
-0.00604712 0.00472431 -0.0253223
-0.00566918 0.00680301 -0.0360938
-0.013984 0.00113384 -0.0164406
-0.0253223 0.00434637 -0.0230547
-0.0215429 0.00226767 -0.0160627
-0.00510226 -0.00321253 -0.00188973
0.00245664 -0.0041574 0.00151178
-0.00245664 -0.00151178 -0.00642507
0.0020787 -0.00718096 0.0075589
-0.00699199 -0.00699199 -0.00188973
-0.00604712 0.0578256 0.0215429
-0.0062361 0.0738883 0.0239995
-0.00793685 0.0228657 0.00283459
-0.00907068 -0.048566 -0.0221098
-0.00907068 -0.0631168 -0.0247554
-0.00850377 0.0453534 0.00907068
0.0306136 -0.020598 0.034771
0.00831479 0.00264562 0.00982658
0.0119053 -0.0041574 0.00548021
0.0111494 -0.00472431 0.00585815
0.00434637 -0.00944863 0.00831479
0.00226767 -0.0107714 0.00907068
0.0168186 -0.000566918 0.00340151
0.0156847 -0.00075589 0.00396842
0.00888171 -0.00510226 0.00680301
0.00321253 -0.00907068 0.00907068
0.00793685 -0.00831479 0.00718096
0.0170075 -0.00529123 0.00396842
0.0107714 0.00774788 0.0188973
-0.0134171 -0.00793685 -0.0130391
0.0105825 -0.0126612 0.00718096
-0.0364717 0.00793685 -0.0326923
-0.0296687 0.00434637 -0.020409
0.0124722 -0.00699199 0.0102045
0.00340151 -0.0020787 -0.00396842
-0.00491329 0.096376 0.0374166
-0.00472431 0.127368 0.0425188
-0.0105825 -0.0914627 -0.0400622
-0.0100155 -0.116974 -0.0449755
-0.0258892 0.0470542 0.0213539
0.000188973 0.0629279 0.0102045
-0.00132281 0.0440306 0.00359048
0.0370386 -0.0255113 0.0442196
0.0179524 -0.0332592 0.0548021
0.0568808 -0.0128501 0.0253223
0.0221098 0.00302356 0.000944863
0.0200311 0.00264562 0.0020787
0.00831479 -0.00529123 0.00699199
-0.000566918 -0.0115273 0.0115273
0.0177634 -0.00188973 0.00491329
Vibration 7
-0.0192752 0.00434637 0.00491329
-0.0183303 -0.00188973 -0.00434637
-0.0119053 -0.00604712 -0.0075589
-0.00566918 -0.00264562 -0.00680301
-0.00529123 0.00472431 0.0020787
-0.0126612 0.00831479 0.0147399
0.00188973 0.00944863 -0.00340151
-0.0128501 0.020976 0.0387394
-0.0134171 0.0338261 0.062361
-0.0173855 0.00340151 0.00188973
0.0255113 -0.0109604 0.0281569
0.041196 -0.0188973 0.027779
0.0100155 -0.0130391 -0.000188973
-0.0379835 0.00264562 -0.0302356
-0.0504557 0.0096376 -0.0283459
0.0336371 -0.0239995 0.00566918
-0.0119053 -0.00831479 -0.00831479
-0.0128501 -0.00718096 -0.0075589
-0.0130391 0.00888171 -0.00075589
-0.0128501 0.0232436 0.00510226
-0.0119053 0.0153068 0.00151178
-0.0115273 -0.000944863 -0.00529123
-0.013795 0.0493218 0.0149288
0.00831479 -0.0232436 -0.0226767
0.0126612 0.00736993 -0.0130391
0.0154958 -0.000566918 -0.00340151
0.0124722 -0.00774788 -0.00283459
0.00680301 -0.0117163 -0.00529123
0.00226767 -0.00888171 -0.00699199
0.0162516 -0.0103935 -0.000377945
0.013795 -0.0173855 -0.000944863
0.00793685 -0.0215429 -0.00359048
0.00434637 -0.0188973 -0.00604712
0.0119053 -0.00321253 -0.00472431
0.0245664 0.000188973 0.000566918
0.020598 0.0119053 -0.0292908
-0.0221098 -0.0041574 -0.00661404
0.0158737 -0.00699199 -0.00132281
0.048377 -0.0160627 0.048566
0.0771008 -0.0300466 0.0491329
-0.0644397 0.00888171 -0.0538572
-0.0854156 0.0188973 -0.048188
-0.0130391 -0.0164406 -0.0115273
-0.013795 0.0115273 0.000566918
-0.0115273 0.0232436 0.00491329
-0.0113384 -0.00548021 -0.00718096
-0.0330702 0.0625499 -0.0020787
-0.00453534 0.0381725 0.0213539
-0.00529123 0.0702978 0.0323143
0.0398732 -0.0366607 -0.00907068
-0.00170075 -0.0421409 -0.068786
-0.027401 0.00831479 -0.00869274
0.020976 -0.00699199 0.0020787
0.0164406 -0.0194642 0.000944863
0.00585815 -0.0270231 -0.00396842
-0.000188973 -0.0221098 -0.00831479
0.0279679 0.00566918 -0.00245664
Vibration 8
-0.0096376 -0.00396842 0.00548021
-0.00944863 -0.00982658 0.0153068
-0.00472431 -0.0126612 0.0181414
-0.00170075 -0.0103935 0.0224877
-0.000944863 -0.0041574 0.0107714
-0.00548021 -0.00188973 -0.000188973
0.00566918 0 0.00793685
-0.00472431 0.00151178 -0.0221098
-0.0041574 0.00377945 -0.0428968
-0.013984 -0.00188973 -0.00188973
-0.0192752 0.0041574 -0.00944863
-0.0170075 0.00283459 -0.0117163
-0.00850377 -0.00491329 -0.00529123
-0.00680301 -0.00888171 -0.000944863
-0.0102045 -0.00680301 0.000188973
-0.0020787 -0.00774788 -0.00491329
-0.00472431 -0.0117163 0.00850377
0.00888171 -0.0432747 -0.0115273
0.00982658 -0.0298577 -0.0226767
-0.00377945 0.0175745 -0.0130391
-0.0175745 0.0468652 0.00510226
-0.0173855 0.0309915 0.0156847
-0.00377945 0.0393063 -0.0238105
0.0217318 -0.0251334 0.0154958
0.0134171 -0.00113384 0.00264562
0.0168186 -0.00604712 -0.00491329
0.0111494 0.00793685 -0.00075589
-0.00434637 -0.00188973 0.0192752
0.00075589 -0.0145509 0.027401
0.0192752 0.0270231 -0.0143619
0.0100155 0.0353379 -0.00661404
-0.00869274 0.0236216 0.0145509
-0.0160627 0.00434637 0.027779
0.0153068 -0.0202201 0.0102045
0.0243775 -0.0141729 -0.0211649
0.0168186 0.00226767 0.00170075
-0.013606 -0.0122832 0.0162516
0.0219208 -0.0294797 0.0119053
-0.0245664 0.00944863 -0.0130391
-0.020787 0.00718096 -0.0170075
-0.00283459 -0.0134171 0.00151178
-0.00907068 -0.00944863 0.00321253
0.0198421 -0.076156 -0.0173855
0.0202201 -0.054991 -0.0376055
-0.027779 0.0822031 0.0120942
-0.0285349 0.0534792 0.0308025
-0.0154958 0.0476211 -0.0353379
-0.00944863 0.0376055 -0.0262672
0.0132281 0.0515895 -0.020787
0.0298577 -0.0285349 0.0188973
0.0096376 -0.0372276 0.034204
0.0427078 -0.0219208 0.00774788
0.0323143 0.0351489 -0.0306136
0.0170075 0.0508336 -0.0171965
-0.0171965 0.0294797 0.020976
-0.0304246 -0.00491329 0.0440306
0.0268341 -0.0166296 -0.0255113
Vibration 9
0.00699199 -0.00699199 -0.0428968
0.00736993 -0.00529123 -0.0648176
0.00661404 -0.00491329 -0.0360938
0.00585815 -0.00529123 -0.00132281
0.00529123 -0.00585815 -0.000377945
0.0062361 -0.00642507 -0.0122832
0.00510226 -0.00566918 0.0156847
0.00566918 -0.00264562 0.0153068
0.00510226 0.00283459 0.0406291
0.00642507 -0.00642507 -0.0338261
0.0103935 -0.0258892 -0.0128501
0.00793685 -0.0249444 0.00661404
-0.000377945 -0.00359048 0.0041574
-0.00529123 0.0162516 -0.0164406
-0.00075589 0.0128501 -0.034582
-0.00340151 -0.00396842 0.0264562
0.00642507 -0.00453534 -0.0266451
-0.00680301 -0.0062361 -0.0194642
-0.0075589 -0.00661404 -0.00302356
0.00529123 -0.00434637 0.00642507
0.0187083 -0.00302356 -0.000566918
0.0188973 -0.00302356 -0.0171965
0.00434637 -0.00321253 0.0253223
-0.0188973 0.0239995 0.0196532
0.00132281 -0.00377945 0.0270231
0.00377945 -0.00151178 -0.00491329
0.00245664 0.013984 -0.00283459
-0.0162516 0.0020787 0.0164406
-0.000377945 -0.00472431 0.0217318
0.00869274 0.0325033 -0.0160627
-0.00699199 0.0368497 -0.00604712
-0.0309915 0.0215429 0.0162516
-0.0349599 0.00472431 0.0281569
0.00245664 -0.00793685 0.0062361
-0.00264562 -0.00793685 -0.0213539
-0.0075589 -0.00359048 0.0653845
0.00869274 -0.00472431 -0.0954312
0.00510226 -0.0128501 0.00661404
0.0154958 -0.0427078 -0.0128501
0.0122832 -0.0400622 0.0232436
-0.0115273 0.0334482 -0.0179524
-0.00264562 0.0260782 -0.0478101
-0.0170075 -0.00718096 -0.0266451
-0.0183303 -0.00793685 0.00245664
0.0287238 -0.00151178 0.00661404
0.0296687 -0.0020787 -0.0228657
-0.000566918 -0.000377945 0.0222988
0.0168186 -0.0105825 0.0325033
-0.00377945 0.00226767 0.0360938
-0.0200311 0.0177634 0.0396842
-0.0132281 0.0266451 -0.00925966
-0.0338261 0.0461093 0.0257003
0.0247554 0.0425188 -0.0340151
-0.00151178 0.0512116 -0.0158737
-0.0457314 0.0228657 0.0249444
-0.0517785 -0.00585815 0.0461093
-0.0075589 -0.0145509 -0.0158737
Vibration 10
0.00321253 0.00642507 0.027779
0.00359048 0.000944863 0.0394953
0.00793685 -0.00170075 0.0154958
0.0107714 0 -0.0113384
0.0111494 0.00529123 0
0.00699199 0.00774788 0.0102045
0.0109604 0.00585815 0.00925966
0.00736993 0.0149288 0.0062361
0.0075589 0.0238105 0.00359048
-0.00170075 0.00925966 0.0217318
0.00453534 0.0158737 0.0168186
0.000566918 0.0183303 0.000944863
-0.00812582 0.0132281 -0.00831479
-0.0158737 0.00718096 -0.00510226
-0.0126612 0.0062361 0.0096376
-0.0096376 0.0154958 -0.0253223
0.00831479 -0.00434637 0.0109604
0.0147399 -0.00283459 0.00793685
0.0151178 0.000566918 0.0020787
0.00982658 0.00188973 -0.00113384
0.00377945 -0.00245664 0.00075589
0.00359048 -0.00548021 0.00699199
0.0100155 0.00869274 -0.00680301
0.0298577 -0.0185193 0.00642507
0.00510226 0.00774788 0.0260782
0.0132281 0.00188973 -0.0330702
0.0141729 0.00321253 -0.0332592
0.00944863 0.00075589 -0.0313695
0.0124722 0.00151178 -0.0325033
-0.0171965 -0.0171965 -0.0219208
-0.0599043 -0.0457314 -0.0062361
-0.0648176 -0.0491329 -0.00396842
-0.0264562 -0.0236216 -0.0179524
-0.00377945 -0.00736993 -0.0332592
0.0100155 -0.00491329 -0.0496998
-0.0075589 0.0134171 0.100344
-0.000566918 -0.00113384 0.062172
-0.00888171 -0.0117163 -0.0521564
0.0128501 0.0194642 0.0257003
0.00472431 0.0234326 -0.00302356
-0.0249444 0.0041574 -0.0147399
-0.0190862 0.00245664 0.0113384
0.0194642 -0.00396842 0.0107714
0.0196532 0.00264562 0.000377945
-0.000944863 -0.00264562 -0.00226767
-0.000944863 -0.00774788 0.00850377
0.00661404 0.0100155 -0.00736993
0.00699199 0.0119053 -0.00888171
0.0162516 0.0100155 -0.00907068
0.041196 -0.0211649 0.0041574
0.0111494 -0.0362827 0.0428968
0.0648176 -0.0221098 -0.00680301
-0.0145509 -0.0153068 -0.0230547
-0.0910848 -0.0665184 0.00566918
-0.100533 -0.0727545 0.00944863
-0.0300466 -0.0258892 -0.0162516
-0.00264562 -0.00283459 -0.0281569
Vibration 11
0.0126612 -0.00812582 -0.00264562
0.0130391 -0.00321253 -0.00113384
0.0105825 -0.00113384 0.00529123
0.00850377 -0.0020787 0.00774788
0.00850377 -0.0075589 0.0062361
0.0115273 -0.00850377 0.00510226
0.00075589 -0.0130391 0.00283459
0.0111494 -0.00491329 0.0115273
0.0109604 0.00151178 0.0198421
0.00302356 -0.00264562 -0.0113384
0.0147399 -0.0162516 0.00585815
-0.00642507 -0.00529123 -0.00283459
-0.0376055 0.0170075 -0.0266451
-0.05518 0.0330702 -0.0476211
-0.0338261 0.0213539 -0.0394953
-0.054991 0.0257003 -0.0323143
0.0109604 0.00226767 0.00604712
0.013795 0.00283459 0.00472431
0.0141729 0.00132281 0.00151178
0.0122832 -0.000188973 -0.000377945
0.0096376 0.00283459 0.00226767
0.00944863 0.0041574 0.00566918
0.0126612 -0.0062361 -0.00566918
0.0521564 -0.0249444 0.0702978
-0.00869274 -0.0130391 -0.0062361
-0.0143619 -0.00604712 0.00774788
-0.0134171 -0.00585815 0.00718096
0.00453534 0.00604712 0.00188973
0.00340151 0.00340151 0.00264562
-0.020787 -0.00925966 0.00888171
-0.00359048 0.00396842 0.00302356
0.020787 0.0202201 -0.00472431
0.0236216 0.020598 -0.00472431
-0.00680301 0.000944863 0.00566918
-0.0200311 -0.00264562 0.013795
-0.0107714 -0.0213539 -0.0279679
0.0156847 -0.00170075 -0.00453534
-0.0117163 0.00774788 0.00491329
0.041574 -0.0359048 0.0258892
0.00340151 -0.0151178 0.00982658
-0.0865495 0.0561249 -0.0716206
-0.0461093 0.0319364 -0.0532903
0.0156847 0.00377945 0.00642507
0.0156847 0.00075589 0.000377945
0.00774788 0.00359048 0.00132281
0.00793685 0.00585815 0.00718096
0.0183303 -0.00831479 -0.00566918
0.00831479 -0.00680301 -0.00774788
0.0122832 -0.00907068 -0.00850377
0.0767229 -0.0432747 0.105258
0.00529123 -0.0721875 0.14343
0.149099 0.0041574 0.0349599
-0.0377945 -0.020787 0.0141729
-0.00812582 0.00188973 0.00377945
0.0372276 0.0325033 -0.0107714
0.0404401 0.0321253 -0.0100155
-0.0187083 -0.00661404 0.00944863
Vibration 12
-0.00359048 -0.000566918 -0.0153068
-0.00302356 -0.00585815 -0.00340151
0.00340151 -0.00925966 0.0164406
0.0109604 -0.00434637 0.0222988
0.0120942 -0.00132281 0.00907068
0.00434637 0.00264562 -0.00283459
0.00510226 -0.00604712 0.00604712
0.00472431 0.0268341 0.000377945
0.00491329 0.0602823 0.00661404
-0.0128501 0.00434637 -0.0272121
-0.027401 0.00642507 -0.0332592
-0.0185193 0.00132281 -0.0175745
0.00472431 -0.00434637 0.00283459
0.00359048 0.00245664 -0.0041574
-0.00434637 0.00604712 -0.0183303
0.0355268 -0.0219208 0.0404401
0.00359048 -0.0160627 0.0153068
0.0130391 -0.0192752 0.00850377
0.013984 -0.0130391 -0.00113384
0.00491329 -0.00170075 -0.00283459
-0.00472431 -0.00472431 0.00151178
-0.00472431 -0.0126612 0.0105825
0.00472431 0.0188973 -0.0103935
-0.0183303 0.0154958 -0.00642507
-0.00396842 -0.00604712 0.00321253
-0.00434637 -0.0130391 -0.00453534
-0.0145509 -0.0130391 -0.000377945
0.0239995 0.0130391 -0.00453534
0.0154958 -0.00302356 0.00226767
-0.0629279 -0.0330702 0.00869274
-0.0489439 -0.0111494 0.00680301
0.0196532 0.0353379 -0.00793685
0.0536682 0.0461093 -0.0119053
-0.00226767 -0.0147399 0.000377945
0.00302356 -0.0143619 -0.00699199
-0.00812582 -0.00850377 0.0120942
-0.00793685 -0.00869274 -0.0107714
-0.0103935 -0.0100155 -0.0117163
-0.0434637 0.0102045 -0.0474321
-0.0264562 0.000566918 -0.0190862
0.0130391 0.00226767 0.00510226
-0.00075589 0.00888171 -0.0200311
0.020598 -0.0243775 0.0113384
0.0213539 -0.0154958 -0.0062361
-0.0122832 0.000377945 -0.00151178
-0.0122832 -0.0141729 0.0141729
-0.00774788 0.0234326 -0.00982658
0.00245664 0.0281569 -0.0132281
0.0192752 0.0232436 -0.0141729
0.00283459 0.000944863 0.0202201
-0.0132281 0.0103935 -0.0859825
-0.0793685 0.0595264 0.0173855
-0.108092 -0.0638727 0.0158737
-0.0884392 -0.0285349 0.0151178
0.0432747 0.0604712 -0.0141729
0.0980768 0.0763449 -0.0194642
0.0041574 -0.0109604 -0.00642507
Vibration 13
-0.00170075 0.00359048 0.0217318
-0.00170075 0.00245664 -0.0100155
0.00302356 -0.000188973 -0.0285349
0.00869274 0.00302356 -0.00264562
0.00718096 0.00283459 0.020976
0.00245664 0.00491329 0.0224877
0.00340151 0.000188973 0.0360938
0.00340151 0.0162516 -0.00396842
0.00491329 0.0325033 -0.0432747
0.00132281 0.00283459 0.0302356
0.00982658 0.00736993 0.02759
0.0100155 0.00831479 0.0145509
0.00151178 0.00283459 0.00529123
0.00264562 -0.00793685 0.0158737
0.000944863 -0.00585815 0.0270231
-0.0103935 0.0111494 -0.0249444
0.00340151 -0.0232436 -0.0455424
-0.0120942 -0.0394953 -0.041574
-0.013984 -0.0377945 -0.0196532
0.00170075 -0.0177634 -0.00170075
0.0188973 -0.0385504 -0.0187083
0.0183303 -0.0396842 -0.0406291
-0.00170075 0.0421409 0.048566
0.00982658 -0.0170075 -0.0130391
-0.00377945 -0.000944863 0.00718096
-0.00699199 0.0041574 0.00396842
-0.00736993 0.00396842 0.00340151
-0.000377945 0.00869274 0.00226767
0.00604712 0.00529123 0.00245664
-0.0160627 0.00283459 0.00340151
-0.0120942 0.0100155 0.00283459
0.000377945 0.0183303 0.000944863
0.00529123 0.0175745 0.00188973
-0.00472431 0.00925966 0.00264562
-0.0154958 0.00718096 0.00812582
-0.00718096 -0.0102045 -0.0132281
-0.00321253 0.00113384 -0.0211649
-0.00793685 0.0124722 0.00170075
0.0151178 0.0122832 0.0338261
0.0141729 0.0134171 0.0103935
0.00245664 -0.0164406 0.0134171
-0.00226767 -0.0109604 0.0309915
-0.0251334 -0.0459203 -0.0527234
-0.027401 -0.0436527 -0.0141729
0.0315584 -0.0449755 -0.0126612
0.0325033 -0.0474321 -0.0514005
-0.0566918 0.062172 0.0491329
0.0406291 0.0504557 0.0674632
0.0062361 0.068786 0.0727545
-0.00585815 -0.0020787 -0.0461093
0.0119053 -0.0075589 0.0359048
0.0359048 -0.0599043 -0.0238105
-0.0247554 -0.00321253 0.00283459
-0.0179524 0.00850377 0.00321253
0.00604712 0.0247554 -0.000377945
0.0130391 0.0230547 0.00226767
-0.0160627 0.00132281 0.00585815
Vibration 14
0.00793685 -0.00434637 0.00642507
0.00925966 -0.00453534 0.013795
0.0124722 -0.00548021 0.00907068
0.0100155 -0.00585815 -0.000377945
0.0111494 -0.00736993 0.0255113
0.00907068 -0.00510226 0.0162516
0.00396842 -0.0115273 0.0510226
0.0100155 0.0215429 0.00321253
0.0111494 0.0678412 -0.0145509
-0.00340151 0.00188973 -0.0100155
-0.0196532 0.00888171 -0.0213539
-0.0215429 0.00944863 -0.0188973
-0.00434637 0.00340151 -0.0041574
-0.00812582 0.00774788 -0.00944863
-0.00566918 0.00604712 -0.0109604
0.0249444 -0.0126612 0.0264562
0.013795 -0.00321253 0.00944863
0.0198421 0.00151178 0.00812582
0.020409 0.00434637 0.00472431
0.0179524 0.000566918 0.00151178
0.0128501 -0.00321253 0.00302356
0.0122832 -0.00434637 0.00774788
0.0185193 -0.000377945 -0.00529123
-0.00510226 0.00736993 -0.000188973
-0.0120942 -0.0134171 0.00642507
-0.0194642 0.00718096 0.0062361
0.00680301 0.0117163 -0.00548021
-0.0151178 -0.00302356 -0.00793685
-0.00548021 0.00585815 -0.0120942
0.0438416 0.0215429 -0.00793685
0.0302356 -0.00245664 -0.00680301
-0.0243775 -0.0394953 0.00132281
-0.0427078 -0.0370386 -0.0020787
-0.02759 0.00812582 -0.0062361
-0.0491329 0.00793685 0.00321253
-0.0187083 -0.0360938 -0.0495108
0.00699199 -0.00566918 0.0188973
-0.034393 0.00812582 -0.0175745
-0.0292908 0.0122832 -0.0294797
-0.0315584 0.0126612 -0.0247554
-0.00850377 0.00982658 -0.00925966
-0.00264562 0.00699199 -0.0109604
0.0238105 0.00170075 0.0109604
0.0228657 0.00850377 0.00472431
0.00907068 -0.00472431 -0.000188973
0.0102045 -0.0062361 0.00793685
0.020976 -0.000944863 -0.00604712
0.013795 0.000188973 -0.00774788
0.020976 -0.00132281 -0.00793685
0.0406291 -0.0202201 0.0447865
-0.0202201 -0.0226767 -0.0789905
-0.0527234 0.0763449 0.0192752
0.0780457 0.0449755 -0.00888171
0.0576366 0.00566918 -0.0096376
-0.0502667 -0.0676522 0.00793685
-0.075778 -0.0600933 -0.00132281
-0.0578256 -0.0115273 0.00491329
Vibration 15
0.0020787 0.00680301 0.0062361
0.000566918 0.0062361 -0.020787
-0.00434637 0.00907068 -0.0134171
-0.00680301 0.00642507 0.0236216
-0.0096376 0.00793685 0.0646286
-0.00321253 0.0062361 0.0421409
-0.00661404 0.0128501 0.109604
-0.00359048 -0.0355268 0.0122832
-0.00340151 -0.106203 -0.0334482
-0.00396842 0.0109604 -0.00812582
-0.00850377 0.013984 -0.0119053
-0.00793685 0.0134171 -0.00982658
-0.00264562 0.0122832 -0.00529123
-0.0147399 0.0185193 -0.0147399
-0.0113384 0.0158737 -0.0132281
0.0215429 -0.000377945 0.0192752
-0.0041574 0.0143619 -0.0202201
-0.0151178 0.0154958 -0.0134171
-0.0164406 0.0105825 -0.00170075
-0.00642507 0.0041574 0.00226767
0.00453534 0.0119053 -0.000944863
0.00434637 0.0166296 -0.0130391
-0.00661404 -0.0175745 0.0128501
0.00245664 0.013606 0.00321253
0.00982658 0.00548021 0.020787
0.0158737 0.000566918 -0.00982658