[Molden Format]
[FREQ]
15.1
24.7
26.0
29.5
30.4
38.3
43.7
50.5
52.4
56.4
72.2
79.4
84.1
95.7
117.1
124.1
129.5
136.3
148.1
162.9
173.1
179.7
200.4
204.7
231.1
243.7
248.4
259.5
291.4
300.7
316.5
327.6
340.4
352.4
356.1
361.2
368.4
376.7
408.6
425.3
469.5
477.3
482.3
501.3
525.4
531.5
538.0
551.5
559.3
581.1
607.1
614.1
615.7
633.3
640.0
641.6
663.1
683.5
685.8
704.7
713.5
725.3
748.4
752.3
797.1
804.5
810.4
854.4
858.8
879.7
882.5
895.9
900.6
901.2
928.0
940.3
959.8
994.2
1008.7
1008.8
1011.4
1017.4
1018.2
1027.8
1029.7
1033.6
1069.1
1070.8
1080.6
1087.9
1100.8
1126.2
1142.3
1145.1
1171.9
1179.0
1182.8
1183.4
1223.3
1248.1
1251.3
1261.8
1265.7
1270.8
1271.1
1283.0
1286.8
1289.3
1294.8
1301.4
1319.7
1327.8
1334.3
1347.0
1351.3
1354.9
1361.2
1365.5
1374.9
1388.3
1400.1
1426.0
1429.3
1473.6
1476.6
1511.2
1516.5
1523.9
1533.4
1583.5
1584.5
1639.4
1698.3
1699.4
1706.5
1707.4
1736.8
1738.9
1781.8
1801.2
1803.4
1838.0
2251.2
2447.6
2651.7
2653.4
2654.3
2666.5
2673.4
2727.3
2743.4
2745.1
2747.1
2747.6
2750.7
2753.7
2761.3
2762.4
2763.0
2766.5
2767.4
2770.2
2772.7
2779.2
2783.9
       
[FR-COORD]
C -3.07761 -2.66168 0.626633
C -0.397976 -2.66168 0.626633
C 0.918596 -0.419897 0.626633
N -0.347899 1.86781 0.642129
C -2.9818 1.96097 1.28237
C -4.35015 -0.410637 0.900832
N -3.80024 4.08143 2.17678
C -7.01013 -0.259081 0.863416
N -9.1956 -0.120187 0.835259
C -4.39342 -5.07373 0.286293
C -3.87564 -6.52277 -1.87234
C -5.11246 -8.79365 -2.26446
C -6.86934 -9.62324 -0.450889
C -7.38751 -8.21823 1.71965
C -6.13991 -5.92769 2.06755
O -7.93326 -11.873 -1.06486
C 3.69895 -0.397409 0.521375
C 5.09224 0.842629 2.38899
C 7.71348 0.915383 2.23025
C 8.95371 -0.25757 0.214106
C 7.55512 -1.55014 -1.61685
C 4.93351 -1.62932 -1.46133
C 11.7569 -0.105258 -0.00188973
C -9.80465 -12.8477 0.597909
C -0.0145509 5.67126 4.31897
C 0.985114 4.14417 0.157603
C 2.34439 4.68293 -1.96191
C 3.8471 6.97347 -2.11215
C 3.60786 8.8065 -0.38626
C 2.42565 2.999 -4.12716
C 4.07368 3.3777 -6.03824
C 5.78559 5.50402 -6.0133
C 5.65066 7.24483 -4.14946
O 3.46481 10.4339 1.06221
O 0.747576 6.07112 1.8508
O 0.505691 3.79117 5.45507
H 0.610948 -4.45276 0.644019
H -0.922564 7.4151 4.92311
H -2.50597 -5.84095 -3.25562
H -4.76268 -9.93542 -3.93498
H -8.74131 -8.86376 3.11673
H -6.53354 -4.79745 3.74978
H 4.1162 1.75763 3.96824
H 8.79724 1.89974 3.67401
H 8.51624 -2.48083 -3.17606
H 3.84314 -2.62955 -2.89449
H 12.6884 0.0582036 1.84702
H 12.3127 1.56432 -1.11551
H 12.5727 -1.765 -0.945052
H -10.3678 -14.6019 -0.359615
H -11.4138 -11.5551 0.741906
H -8.99358 -13.2651 2.45362
H 1.08773 1.43487 -4.15475
H 4.15078 2.11479 -7.65944
H 7.13995 5.65897 -7.54681
H 6.88163 8.89248 -4.12584
H -5.6431 4.33012 2.56984

[FR-NORM-COORD]
Vibration 1
-0.00585815 0.000944863 -0.020787
-0.00585815 0.00113384 -0.020787
-0.00604712 0.00113384 -0.020598
-0.00472431 0.00170075 -0.0232436
-0.00793685 0.00396842 -0.0368497
-0.0062361 0.0020787 -0.0317474
-0.0122832 0.00812582 -0.0510226
-0.0062361 0.000944863 -0.0370386
-0.0062361 0 -0.0425188
-0.00548021 -0.00151178 -0.00491329
-0.00982658 -0.0149288 0.00321253
-0.00774788 -0.0194642 0.0221098
-0.00113384 -0.00982658 0.0326923
0.00226767 0.00434637 0.0241885
0 0.00850377 0.00529123
0.00151178 -0.0164406 0.0517785
-0.00566918 0 -0.0175745
-0.00699199 -0.0147399 -0.00718096
-0.00680301 -0.0149288 -0.0041574
-0.00566918 -0.000566918 -0.0119053
-0.00472431 0.013795 -0.0226767
-0.00491329 0.013984 -0.0257003
-0.00529123 -0.000566918 -0.00869274
0.00907068 -0.00869274 0.0648176
-0.00340151 -0.0247554 0.00472431
0.00245664 0.00170075 -0.00377945
0.00888171 0.013984 0.00359048
0.0166296 0.0102045 0.0241885
0.0200311 -0.00264562 0.0385504
0.00888171 0.0294797 -0.00850377
0.0134171 0.0393063 -0.00264562
0.0190862 0.034582 0.0164406
0.020787 0.020787 0.0292908
0.0234326 -0.0143619 0.0519675
0.00680301 -0.0103935 0.0113384
-0.0255113 -0.0391173 -0.00925966
-0.00566918 0.00132281 -0.0196532
0.00736993 -0.0228657 0.0160627
-0.0145509 -0.0222988 -0.00510226
-0.0107714 -0.0300466 0.0287238
0.00661404 0.0120942 0.0321253
0.00283459 0.0194642 -0.00151178
-0.00812582 -0.0260782 -0.00132281
-0.0075589 -0.0264562 0.0041574
-0.00359048 0.0249444 -0.0289128
-0.0041574 0.0251334 -0.0340151
-0.00699199 -0.00340151 -0.00774788
-0.00396842 0.000944863 -0.00566918
-0.00491329 0.000566918 -0.0103935
0.0107714 -0.0173855 0.0797464
0.00604712 -0.0119053 0.0599043
0.0156847 0.00736993 0.0655735
0.00491329 0.0330702 -0.0222988
0.0132281 0.0510226 -0.0119053
0.0222988 0.0423299 0.0198421
0.0255113 0.0170075 0.0440306
-0.0143619 0.0105825 -0.0627389
Vibration 2
0.00491329 -0.0020787 0.00302356
0.00510226 -0.00226767 0.00718096
0.00434637 -0.00226767 0.00736993
0.0041574 -0.00264562 0.00264562
0.00245664 -0.000188973 -0.00566918
0.0041574 -0.00170075 -0.00264562
0.00132281 0.0041574 -0.0170075
0.0041574 -0.00170075 -0.00812582
0.00434637 -0.00132281 -0.0132281
0.00491329 -0.0020787 0.00283459
0.0156847 -0.00869274 0.00982658
0.013606 -0.00718096 0.00774788
0.000377945 0.000944863 -0.00132281
-0.00944863 0.00680301 -0.0075589
-0.00699199 0.00510226 -0.00529123
-0.00151178 0.00226767 -0.00321253
0.00472431 0.00245664 0.013795
-0.00340151 -0.0177634 0.0330702
-0.00283459 -0.0115273 0.0421409
0.00510226 0.0156847 0.0313695
0.0126612 0.0366607 0.0105825
0.0122832 0.0294797 0.0020787
0.00566918 0.0215429 0.0419519
-0.0173855 0.0126612 -0.0147399
0.0164406 -0.00907068 0.00566918
0.00604712 -0.00434637 0.000566918
-0.00888171 -0.00321253 -0.00850377
-0.00453534 -0.00699199 -0.0173855
0.0315584 -0.0196532 0.00113384
-0.0338261 0.000377945 -0.0122832
-0.0629279 0.00869274 -0.0359048
-0.0680301 0.0128501 -0.0566918
-0.0393063 0.00434637 -0.0466762
0.0633058 -0.0319364 0.0179524
0.0243775 -0.00907068 0.00869274
-0.00264562 -0.0158737 0.00283459
0.00548021 -0.0020787 0.0102045
0.0281569 -0.00340151 0.00736993
0.0255113 -0.0149288 0.0166296
0.0217318 -0.0120942 0.0128501
-0.0190862 0.0126612 -0.013984
-0.0145509 0.00944863 -0.0100155
-0.00982658 -0.0383614 0.0410071
-0.00907068 -0.0281569 0.0582036
0.0188973 0.0587705 0.00132281
0.0183303 0.0453534 -0.013606
-0.000944863 0.0222988 0.0451645
0.00642507 0.0230547 0.0445975
0.0117163 0.0232436 0.0440306
-0.0168186 0.0128501 -0.0151178
-0.013606 0.0188973 -0.0292908
-0.0325033 0.013795 -0.00793685
-0.0296687 -0.00359048 0.00359048
-0.0839038 0.0120942 -0.0396842
-0.0950532 0.0226767 -0.0795575
-0.041385 0.00604712 -0.0604712
0.000566918 0.00718096 -0.0230547
Vibration 3
-0.00699199 0.00774788 -0.0105825
-0.00718096 0.00529123 -0.0183303
-0.00566918 0.0041574 -0.0111494
-0.00434637 0.00510226 -0.00736993
-0.00340151 0.00680301 -0.0041574
-0.00510226 0.00680301 0.00188973
-0.00132281 0.00907068 -0.00699199
-0.00566918 0.00377945 0.0239995
-0.0062361 0.000188973 0.0444086
-0.00831479 0.00831479 -0.0126612
-0.0496998 0.0377945 -0.0421409
-0.0461093 0.0353379 -0.0406291
0.00132281 0.00359048 -0.00925966
0.0410071 -0.0238105 0.0179524
0.0351489 -0.0202201 0.0160627
0.00321253 0.00264562 -0.0096376
-0.00529123 0.0020787 -0.00264562
-0.0117163 -0.00888171 0.00944863
-0.0107714 -0.0153068 0.0236216
-0.00340151 -0.0103935 0.0251334
0.00245664 0.00283459 0.0113384
0.00132281 0.00869274 -0.00245664
-0.00170075 -0.0194642 0.0419519
0.0585815 -0.0360938 0.0296687
-0.00396842 0.00680301 -0.00850377
-0.00132281 0.00359048 -0.00680301
0.000188973 0.000566918 -0.00661404
0.00642507 -0.00340151 -0.00604712
0.013984 -0.00491329 -0.00359048
-0.00453534 0.000944863 -0.00718096
-0.00510226 -0.0020787 -0.00812582
-0.000566918 -0.00566918 -0.00888171
0.00491329 -0.00642507 -0.00774788
0.020787 -0.0062361 -0.00132281
0.00170075 0.00396842 -0.00718096
-0.00907068 0.00661404 -0.0062361
-0.00888171 0.0041574 -0.0281569
-0.00151178 0.00888171 -0.0111494
-0.0846597 0.061794 -0.0646286
-0.0780457 0.0570697 -0.062172
0.075967 -0.0474321 0.0406291
0.0657625 -0.0406291 0.0366607
-0.0175745 -0.0130391 0.00831479
-0.0156847 -0.0247554 0.0336371
0.00793685 0.00774788 0.0117163
0.00604712 0.0183303 -0.0126612
-0.0119053 -0.0285349 0.047999
0.0109604 -0.0181414 0.0502667
-0.00226767 -0.0196532 0.0417629
0.0514005 -0.0311805 0.0249444
0.048566 -0.0548021 0.0878723
0.112817 -0.048377 0.00321253
-0.00793685 0.00377945 -0.00680301
-0.00888171 -0.00170075 -0.00869274
-0.00170075 -0.00774788 -0.0100155
0.00869274 -0.00907068 -0.00793685
-0.00075589 0.0107714 -0.00548021
Vibration 4
0.0117163 -0.0151178 0.000566918
0.0115273 -0.0113384 -0.0041574
0.0075589 -0.00888171 -0.00359048
0.00321253 -0.0107714 -0.00680301
0.00340151 -0.0134171 -0.00718096
0.00812582 -0.0171965 0.00113384
-0.000944863 -0.0119053 -0.0145509
0.00736993 -0.0243775 0.0109604
0.00680301 -0.0309915 0.0198421
0.00850377 -0.0141729 0.00510226
-0.020598 -0.00340151 -0.00888171
-0.0383614 0.00642507 -0.0109604
-0.0258892 0.00566918 0.000566918
0.00888171 -0.00850377 0.0181414
0.0258892 -0.0181414 0.0202201
-0.0519675 0.0198421 -0.00699199
0.00774788 0.00170075 0.000566918
-0.00188973 0.00850377 0.00359048
-0.00283459 0.0332592 0.00170075
0.0062361 0.0502667 -0.00283459
0.0168186 0.0381725 -0.00226767
0.0173855 0.013795 -0.000566918
0.00377945 0.0831479 -0.00907068
-0.0510226 0.0281569 -0.00113384
-0.0111494 -0.00774788 -0.00812582
0.00151178 -0.00925966 -0.00491329
0.00604712 -0.00888171 -0.00188973
0.00944863 -0.0107714 0.00321253
0.00548021 -0.0103935 0.00226767
0.0096376 -0.00774788 -0.00283459
0.0173855 -0.0103935 0.00340151
0.0222988 -0.0143619 0.0109604
0.0183303 -0.0143619 0.0105825
0.00226767 -0.0103935 0.00188973
-0.0020787 -0.00907068 -0.00566918
-0.0149288 -0.00699199 -0.00529123
0.0143619 -0.0096376 -0.00642507
-0.0128501 -0.00718096 -0.0122832
-0.0309915 -0.00226767 -0.0183303
-0.0625499 0.0156847 -0.0224877
0.0217318 -0.0113384 0.0292908
0.0515895 -0.0279679 0.0328812
-0.00907068 -0.00359048 0.0062361
-0.0107714 0.0402512 0.00283459
0.0241885 0.0489439 -0.0041574
0.0255113 0.00566918 -0.00113384
0.00604712 0.100344 -0.0117163
-0.0188973 0.0865495 -0.0156847
0.0217318 0.0901399 -0.00566918
-0.0814472 0.0445975 -0.0132281
-0.0332592 0.0474321 0.0247554
-0.0408181 0 -0.0119053
0.00585815 -0.00434637 -0.00831479
0.0202201 -0.00925966 0.00264562
0.0292908 -0.0173855 0.0168186
0.0217318 -0.0170075 0.0158737
-0.00170075 -0.013984 -0.0162516
Vibration 5
-0.0158737 0.00850377 0.00869274
-0.0156847 0.00718096 0.0120942
-0.0147399 0.00604712 0.00850377
-0.013984 0.00699199 0.00491329
-0.0132281 0.00888171 0.00718096
-0.0147399 0.00907068 0.00850377
-0.0109604 0.00982658 0.0062361
-0.0147399 0.0109604 0.00850377
-0.0145509 0.0126612 0.00925966
-0.0117163 0.00718096 0.00188973
0.00907068 0.00604712 0.00736993
0.0232436 -0.000566918 0.00283459
0.0158737 -0.00661404 -0.00718096
-0.00869274 -0.00359048 -0.0151178
-0.0222988 0.00340151 -0.0103935
0.0355268 -0.0154958 -0.00831479
-0.0149288 0.00661404 0.00340151
-0.0107714 0.0134171 -0.00434637
-0.0117163 0.0241885 -0.0177634
-0.0171965 0.027401 -0.0228657
-0.020598 0.0158737 -0.0119053
-0.0196532 0.00548021 0.000944863
-0.0194642 0.0442196 -0.041385
0.0359048 -0.027779 -0.0151178
-0.00604712 0.0145509 -0.00245664
-0.00944863 0.00340151 0.00113384
-0.00113384 -0.00850377 0.00340151
0.0258892 -0.0260782 0.00831479
0.048188 -0.02759 0.0126612
-0.0160627 -0.00831479 0.00264562
-0.00736993 -0.0268341 0.00642507
0.0183303 -0.0474321 0.0122832
0.0340151 -0.0466762 0.0126612
0.068975 -0.0302356 0.0179524
-0.00566918 0.00774788 -0.00377945
-0.00604712 0.0173855 0.0020787
-0.0164406 0.00661404 0.0160627
-0.00585815 0.0162516 -0.00718096
0.0153068 0.0102045 0.0154958
0.0406291 -0.0020787 0.00736993
-0.0166296 -0.00680301 -0.0241885
-0.0406291 0.00510226 -0.0158737
-0.00680301 0.0117163 -0.000944863
-0.00869274 0.0311805 -0.0247554
-0.0243775 0.0160627 -0.0143619
-0.0226767 -0.00188973 0.00850377
-0.00888171 0.0631168 -0.048377
-0.0377945 0.0402512 -0.0565028
-0.0147399 0.0430858 -0.0351489
0.0582036 -0.0366607 -0.0119053
0.0228657 -0.0427078 -0.0285349
0.0296687 -0.0134171 -0.00907068
-0.0349599 0.00774788 -0.00132281
-0.0190862 -0.0260782 0.00548021
0.0243775 -0.0629279 0.0160627
0.0534792 -0.0612271 0.0166296
-0.0103935 0.0115273 0.00793685
Vibration 6
-0.00226767 -0.00113384 -0.00736993
-0.00170075 0.00377945 -0.0315584
-0.00453534 0.00472431 -0.0287238
-0.00642507 0.00396842 -0.0224877
-0.00226767 0.00075589 -0.00680301
-0.00170075 -0.00321253 0.0147399
-0.00170075 0.00377945 -0.0124722
-0.00283459 -0.00812582 0.0674632
-0.00377945 -0.0111494 0.11773
0.00075589 -0.00321253 -0.00151178
0.0281569 -0.0224877 0.0175745
0.0319364 -0.0247554 0.0196532
0.00585815 -0.00793685 0.00226767
-0.0211649 0.0102045 -0.0158737
-0.0228657 0.0113384 -0.0175745
0.0111494 -0.0111494 0.00604712
-0.0041574 0.00604712 -0.0222988
-0.0124722 -0.0175745 -0.000377945
-0.0113384 -0.0243775 0.0175745
-0.0020787 -0.0062361 0.0126612
0.00548021 0.0213539 -0.0124722
0.0041574 0.0270231 -0.0298577
0.000377945 -0.0170075 0.0357158
-0.0226767 0.0115273 -0.0187083
-0.00869274 0.00075589 -0.0158737
-0.00529123 0.00491329 -0.0166296
0.00151178 0.00718096 -0.0117163
0.00774788 0.0041574 -0.000944863
0.000944863 0.00377945 -0.00170075
0.0041574 0.013606 -0.0166296
0.0162516 0.0115273 -0.00661404
0.0266451 0.00302356 0.00907068
0.0222988 0 0.0115273
-0.00491329 0.00396842 -0.00245664
-0.00736993 0.00321253 -0.0151178
-0.0102045 -0.000944863 -0.0179524
0.00132281 0.00510226 -0.0447865
-0.0075589 0.00075589 -0.013984
0.0470542 -0.0353379 0.0296687
0.0538572 -0.0391173 0.034204
-0.0406291 0.0232436 -0.0285349
-0.0430858 0.0236216 -0.0302356
-0.0198421 -0.0315584 0.00321253
-0.0175745 -0.0444086 0.0359048
0.0124722 0.0376055 -0.0177634
0.0102045 0.0474321 -0.048566
-0.0128501 -0.0444086 0.0447865
0.0170075 -0.00585815 0.0606602
-0.000566918 -0.00925966 0.0213539
-0.0134171 0.00548021 -0.0132281
-0.0196532 0.0198421 -0.0585815
-0.0574477 0.0243775 -0.000566918
-0.00377945 0.020787 -0.0281569
0.0185193 0.0164406 -0.0103935
0.0377945 -0.00075589 0.0185193
0.0296687 -0.00566918 0.0228657
0 0.00245664 -0.0041574
Vibration 7
-0.00661404 0.00359048 -0.00736993
-0.0062361 -0.00170075 -0.00548021
-0.00283459 -0.0041574 0.00075589
0.00132281 -0.00188973 0.00850377
0.00151178 0.00132281 0.00888171
-0.00264562 0.00548021 -0.00472431
0.00661404 -0.0020787 0.0200311
-0.0020787 0.0130391 -0.0179524
-0.00132281 0.020598 -0.0311805
-0.00982658 0.00566918 -0.0096376
-0.00736993 0.00188973 -0.00642507
-0.0041574 -0.00075589 -0.00188973
-0.00321253 0.000566918 -0.000377945
-0.00925966 0.00661404 -0.00585815
-0.0126612 0.00925966 -0.0105825
0.00396842 -0.00472431 0.00661404
-0.00264562 -0.0041574 0.00170075
-0.00491329 -0.0487549 0.0328812
-0.00510226 -0.0400622 0.034204
-0.00359048 0.0156847 0.00283459
-0.00132281 0.0576366 -0.0285349
-0.00113384 0.0462983 -0.0285349
-0.00453534 0.0321253 0.00245664
0.0171965 -0.0124722 0.0170075
0.0425188 -0.013795 0.0198421
0.00434637 -0.00396842 0.00831479
-0.00529123 -0.00340151 0.00283459
-0.00170075 -0.0062361 -0.00302356
-0.0219208 0.0115273 -0.0251334
-0.0171965 -0.00170075 0.000566918
-0.00529123 -0.0173855 0.00793685
0.0183303 -0.0362827 0.0183303
0.0190862 -0.0294797 0.0122832
-0.0436527 0.0281569 -0.0461093
0.013606 -0.00680301 0.0132281
0.0451645 -0.0202201 0.00774788
-0.00907068 -0.00321253 -0.0105825
0.0531013 -0.013606 0.0362827
-0.00718096 0.000377945 -0.00680301
-0.00151178 -0.0041574 0.00113384
-0.0107714 0.00925966 -0.0062361
-0.0166296 0.013606 -0.0143619
-0.00642507 -0.0891951 0.05518
-0.00661404 -0.0752111 0.0593374
0 0.0995886 -0.0527234
0.000377945 0.0784236 -0.0519675
-0.00245664 -0.00548021 0.00472431
-0.0132281 0.0593374 0.0389284
0.000944863 0.0566918 -0.0359048
0.027401 -0.020598 0.0258892
0.00774788 -0.0241885 0.0170075
0.0262672 0.00113384 0.0160627
-0.0355268 0.0141729 -0.00604712
-0.0124722 -0.0154958 0.00604712
0.034204 -0.05518 0.0306136
0.0349599 -0.041385 0.0187083
0.00736993 0.000188973 0.0222988
Vibration 8
-0.000944863 0.00132281 0.00302356
-0.000944863 0.00075589 0.00377945
-0.000566918 0.000377945 0.00321253
0.000377945 0.00075589 -0.000188973
-0.00132281 0.00340151 -0.00699199
-0.000566918 0.00170075 0.00075589
-0.00321253 0.00850377 -0.0211649
-0.00075589 0.000566918 0.00604712
-0.000944863 -0.000566918 0.0115273
-0.000377945 0.00113384 0.00264562
0.000944863 0.00321253 0.00151178
0.0020787 0.00283459 -0.00075589
0.00188973 0.00075589 -0.00188973
0.00075589 -0.00132281 -0.000944863
-0.000377945 -0.00113384 0.00151178
0.00302356 0.00075589 -0.00434637
-0.000377945 -0.000188973 0.00434637
-0.000188973 -0.00982658 0.00944863
0.00075589 -0.00944863 0.0096376
-0.000566918 0.00075589 0.00453534
-0.00188973 0.00831479 -0.00170075
-0.000944863 0.00774788 -0.00188973
-0.00132281 -0.00793685 -0.0117163
0.0020787 -0.000944863 -0.00661404
0.0105825 -0.00680301 0.0062361
0.00321253 -0.000377945 0.00245664
-0.000188973 0.00170075 0.000944863
-0.00075589 0.00188973 -0.000377945
-0.00585815 0.00566918 -0.00529123
-0.00302356 0.00283459 -0.000188973
-0.00132281 0.00075589 0.00075589
0.00264562 -0.00245664 0.00283459
0.00283459 -0.00170075 0.00226767
-0.0117163 0.00944863 -0.0102045
0.0100155 -0.00359048 0.0075589
-0.00302356 -0.0141729 0.000188973
-0.00113384 0.000566918 0.00491329
0.020598 -0.00340151 0.0122832
0.000944863 0.00491329 0.00245664
0.00302356 0.00453534 -0.00170075
0.00075589 -0.00321253 -0.00170075
-0.00132281 -0.00264562 0.00226767
0.000566918 -0.0166296 0.013795
-0.000944863 -0.0158737 0.0153068
0 0.0162516 -0.00510226
-0.00188973 0.0143619 -0.00566918
-0.00472431 0.46166 -0.0527234
-0.0192752 -0.276656 -0.423299
0.0181414 -0.233948 0.400055
0.00264562 0 -0.00888171
0.0020787 -0.00113384 -0.00604712
0.00113384 -0.00302356 -0.00661404
-0.00585815 0.00529123 -0.00132281
-0.00302356 0.00151178 0.000188973
0.00510226 -0.00529123 0.00491329
0.00566918 -0.00377945 0.00359048
-0.0041574 0.0113384 -0.027401
Vibration 9
0.00075589 -0.00434637 -0.0300466
0.00113384 -0.00434637 -0.0396842
0.00188973 -0.00453534 -0.0247554
0.00075589 -0.00434637 -0.00113384
0.00925966 -0.0156847 0.0334482
0.00302356 -0.00566918 -0.00529123
0.0211649 -0.0400622 0.103368
0.00377945 0.00321253 -0.0128501
0.00453534 0.0122832 -0.0222988
-0.00434637 -0.00151178 -0.0279679
-0.00585815 -0.0175745 -0.0173855
-0.00925966 -0.0187083 -0.00151178
-0.0109604 -0.00396842 0.00340151
-0.0128501 0.0141729 -0.00869274
-0.0096376 0.0143619 -0.0247554
-0.0115273 -0.00869274 0.0222988
0.00188973 -0.00075589 -0.0177634
-0.0096376 0.000188973 -0.00925966
-0.00907068 0.00472431 0.00529123
0.00377945 0.00831479 0.0113384
0.0154958 0.00812582 0.00226767
0.0147399 0.00340151 -0.0122832
0.00472431 0.0107714 0.0255113
-0.00113384 -0.00132281 0.0387394
-0.0258892 0.0175745 -0.0183303
-0.00982658 0 -0.00850377
0.000377945 -0.00434637 -0.00377945
-0.00132281 -0.00283459 0.00188973
0.00718096 -0.0132281 0.0143619
0.0105825 -0.00510226 -0.00245664
0.00850377 0.00264562 -0.00283459
-0.00245664 0.0113384 -0.0041574
-0.00699199 0.00831479 -0.00151178
0.0170075 -0.0224877 0.0258892
-0.0364717 0.0103935 -0.0260782
0.034393 0.0453534 0.000566918
0.000944863 -0.00453534 -0.0561249
-0.0644397 0.00245664 -0.034204
-0.00377945 -0.0296687 -0.0213539
-0.00944863 -0.0313695 0.00699199
-0.0164406 0.02759 -0.00566918
-0.00982658 0.0272121 -0.0332592
-0.0192752 -0.00188973 -0.0134171
-0.0190862 0.00529123 0.0124722
0.0257003 0.0115273 0.00661404
0.0241885 0.00321253 -0.0192752
-0.00736993 0.0916517 0.0241885
0.00604712 -0.0338261 -0.0406291
0.0160627 -0.0262672 0.0999665
0.00302356 -0.0128501 0.0572587
-0.0062361 -0.00680301 0.0319364
0.00718096 0.0196532 0.0398732
0.0183303 -0.0115273 -0.00283459
0.0143619 0.00264562 -0.00245664
-0.00680301 0.020409 -0.00718096
-0.0147399 0.0141729 -0.00226767
0.0262672 -0.0512116 0.135115
Vibration 10
-0.0105825 0.00283459 -0.0130391
-0.00982658 -0.0103935 -0.013606
0.00226767 -0.0175745 -0.00245664
0.0122832 -0.0117163 -0.00170075
0.0128501 0.00113384 -0.00377945
0.000944863 0.00793685 -0.00170075
0.0224877 0.00699199 -0.0075589
0.00132281 0.0234326 0.0185193
0.00226767 0.0402512 0.0398732
-0.020409 0.00888171 -0.0170075
-0.00982658 -0.000944863 -0.00812582
-0.00585815 -0.00396842 -0.00340151
-0.0128501 0.0020787 -0.00718096
-0.0323143 0.0173855 -0.0217318
-0.0359048 0.0200311 -0.0266451
0.000944863 -0.00718096 0.00377945
0.00245664 -0.0217318 0.00793685
-0.00585815 0.00453534 -0.00264562
-0.00680301 0.0258892 -0.00491329
0.00151178 0.0183303 0.00453534
0.0117163 -0.0185193 0.0230547
0.0120942 -0.0376055 0.0241885
-0.00113384 0.0534792 -0.00491329
0.0304246 -0.0270231 0.0253223
0.00340151 -0.0228657 0.00434637
0.020787 -0.0151178 0.0041574
0.0145509 -0.00982658 0.00151178
-0.00245664 0.00113384 -0.00472431
-0.0109604 0.000566918 -0.00510226
0.0232436 -0.0122832 0.00377945
0.0128501 0.000188973 -0.00264562
-0.00869274 0.0175745 -0.013795
-0.0156847 0.0171965 -0.013984
-0.0192752 0.000944863 -0.00642507
0.0330702 -0.0213539 0.0130391
-0.0221098 -0.0300466 0.00434637
-0.0192752 -0.0156847 -0.0187083
0.0141729 -0.0160627 0.00075589
-0.00264562 -0.00718096 -0.0041574
0.00472431 -0.0122832 0.00472431
-0.0436527 0.0264562 -0.0285349
-0.0491329 0.0298577 -0.0362827
-0.0122832 0.0107714 -0.0102045
-0.0143619 0.0500777 -0.0156847
0.0187083 -0.0298577 0.034204
0.0200311 -0.0629279 0.0359048
0.00302356 0.0606602 -0.00774788
-0.0266451 0.0636838 -0.00245664
0.0171965 0.0667073 -0.0122832
0.0565028 -0.0459203 0.0447865
0.00793685 -0.0548021 0.0236216
0.0495108 0.00453534 0.0239995
0.0394953 -0.0262672 0.0113384
0.0198421 -0.00283459 0
-0.0187083 0.0302356 -0.0215429
-0.0313695 0.0292908 -0.0215429
0.0234326 0.0173855 -0.0102045
Vibration 11
-0.00944863 -0.00283459 0.0289128
-0.00907068 -0.00661404 0.0379835
-0.00585815 -0.00888171 0.0171965
-0.000944863 -0.00585815 -0.00869274
-0.000566918 0.00170075 -0.00472431
-0.00529123 0.00113384 0.0102045
0.00132281 0.00566918 -0.013606
-0.00491329 0.00699199 0.00359048
-0.00453534 0.0122832 -0.00170075
-0.00982658 -0.00226767 0.0255113
-0.00604712 0.00907068 0.0185193
-0.00264562 0.0100155 0.00529123
-0.00321253 -0.00170075 -0.000566918
-0.00718096 -0.0134171 0.00604712
-0.0105825 -0.0128501 0.0190862
0.00132281 0.000188973 -0.0153068
-0.00604712 -0.0151178 0.0153068
-0.00170075 -0.0393063 0.027779
-0.00226767 -0.0338261 0.0187083
-0.00888171 -0.00075589 -0.00453534
-0.0132281 0.0160627 -0.0132281
-0.0120942 0.00699199 -0.00226767
-0.0113384 0.0188973 -0.0232436
0.00793685 -0.0188973 -0.0194642
0.0119053 0.0171965 -0.0255113
0.00245664 -0.0102045 -0.0183303
0.0196532 -0.0126612 -0.00850377
-0.00188973 0.00245664 -0.00245664
-0.00774788 -0.0113384 0.0120942
0.0542351 -0.0171965 -0.00283459
0.0474321 0.00850377 -0.00396842
0.00529123 0.0421409 -0.0134171
-0.0177634 0.0381725 -0.0113384
-0.0096376 -0.0239995 0.0262672
-0.0185193 0.00377945 -0.0353379
0.0349599 0.0279679 -0.0179524
-0.0115273 -0.00793685 0.0568808
0.00548021 0.0149288 -0.0281569
-0.00510226 0.0177634 0.0236216
0.000188973 0.0190862 -0.000377945
-0.00774788 -0.0224877 0.00113384
-0.0145509 -0.0213539 0.0238105
0.00226767 -0.0600933 0.0423299
0.00188973 -0.0527234 0.0283459
-0.0175745 0.0376055 -0.0287238
-0.0160627 0.0185193 -0.00718096
0.000944863 0.0211649 -0.0296687
-0.0311805 0.0257003 -0.0232436
-0.00680301 0.0270231 -0.0332592
0.0134171 -0.0143619 -0.0308025
0.00302356 -0.0262672 -0.00774788
0.0124722 -0.0285349 -0.0236216
0.0839038 -0.0428968 0.00113384
0.0721875 0.00359048 0.000944863
-0.00699199 0.0699199 -0.0215429
-0.0489439 0.061794 -0.0170075
0.00151178 0.00869274 -0.0141729
Vibration 12
-0.0124722 0.00113384 -0.0100155
-0.0122832 0.00510226 -0.0103935
-0.0145509 0.00642507 -0.00982658
-0.0177634 0.00548021 -0.0171965
-0.0188973 0.0041574 -0.0164406
-0.0151178 -0.000944863 -0.0100155
-0.0213539 0.00359048 -0.0221098
-0.0158737 -0.00888171 0.00075589
-0.0166296 -0.0187083 0.0122832
-0.00774788 -0.00264562 -0.00566918
-0.0096376 -0.00264562 -0.00604712
-0.00359048 -0.00699199 -0.000944863
0.00321253 -0.0107714 0.00377945
0.00566918 -0.0111494 0.00453534
0.000188973 -0.0075589 0
0.00925966 -0.0154958 0.00925966
-0.013984 0.00831479 0.000566918
-0.0221098 0.0432747 -0.0162516
-0.0224877 0.0502667 -0.00812582
-0.0113384 0.0120942 0.0211649
-0.00132281 -0.0287238 0.0425188
-0.00245664 -0.027779 0.0304246
-0.0105825 0.0149288 0.0338261
-0.0183303 0.0041574 -0.0103935
0.108092 -0.0160627 0.0185193
-0.0149288 0.00302356 -0.0151178
-0.0109604 0.00718096 -0.0111494
-0.00283459 0.00264562 0.000944863
-0.00132281 -0.00245664 0.00661404
-0.00925966 0.0128501 -0.0154958
-0.000188973 0.0126612 -0.00774788
0.00736993 0.00661404 0.00491329
0.00661404 0.0020787 0.00907068
0.000566918 -0.00850377 0.013606
-0.0124722 0.00170075 -0.00907068
0.146265 -0.027779 -0.0179524
-0.0105825 0.00604712 -0.00774788
0.124344 -0.0255113 0.0723765
-0.0158737 0.000566918 -0.0105825
-0.00453534 -0.00699199 -0.00113384
0.0120942 -0.0149288 0.00925966
0.0020787 -0.00831479 0.00075589
-0.0266451 0.061983 -0.0302356
-0.0311805 0.0822031 -0.0232436
0.00718096 -0.0612271 0.0672742
0.00585815 -0.0563138 0.0438416
-0.020787 0.0222988 0.0383614
-0.00736993 0.0122832 0.0315584
-0.00321253 0.0132281 0.0434637
-0.0219208 0.00661404 -0.0126612
-0.00925966 0.0175745 -0.0313695
-0.0427078 0.00170075 -0.000188973
-0.0128501 0.0158737 -0.0228657
0.00283459 0.0160627 -0.0103935
0.0141729 0.00566918 0.0107714
0.0126612 -0.00264562 0.0187083
-0.0221098 0.00302356 -0.0247554
Vibration 13
-0.0166296 0.0107714 -0.0119053
-0.0162516 -0.000188973 -0.0151178
-0.00680301 -0.00642507 -0.00888171
0.00151178 -0.00170075 -0.00340151
0.00529123 0.00548021 0.00812582
-0.00774788 0.0143619 -0.00396842
0.0190862 0.00188973 0.0311805
-0.00661404 0.0328812 -0.00302356
-0.00510226 0.05518 -0.00302356
-0.0132281 0.00850377 -0.00907068
-0.027401 0.0198421 -0.0200311
-0.000566918 0.00245664 -0.00359048
0.0376055 -0.0230547 0.0217318
0.0500777 -0.0323143 0.0306136
0.0245664 -0.0158737 0.0156847
0.0719986 -0.0459203 0.0442196
-0.00718096 -0.0134171 -0.00302356
-0.0124722 -0.013606 0.00113384
-0.0126612 -0.0062361 0.00377945
-0.00812582 0.00151178 0.0020787
-0.00245664 -0.00510226 0.00226767
-0.00245664 -0.0128501 -0.000377945
-0.00944863 0.0200311 -0.00113384
-0.0597153 0.0425188 -0.0521564
-0.0126612 -0.0105825 -0.00188973
0.00831479 -0.00472431 0.000377945
0.00736993 -0.00453534 -0.000377945
0.0020787 -0.00113384 -0.00340151
-0.00113384 -0.000566918 -0.00434637
0.0103935 -0.00585815 0.000566918
0.00718096 -0.00226767 -0.00170075
-0.000377945 0.00359048 -0.00642507
-0.00264562 0.00396842 -0.00680301
-0.00453534 0.000944863 -0.00642507
0.0158737 -0.00869274 0.00510226
-0.0239995 -0.0120942 0.000944863
-0.0238105 -0.00472431 -0.0213539
-0.0105825 -0.0075589 -0.00812582
-0.0591484 0.041574 -0.0406291
-0.0100155 0.00907068 -0.0100155
0.0831479 -0.0555579 0.0519675
0.0362827 -0.0239995 0.0236216
-0.0168186 -0.0175745 0.000944863
-0.0166296 -0.00491329 0.00585815
0.00188973 -0.00283459 0.00359048
0.00170075 -0.0164406 -0.00075589
-0.00831479 0.02759 -0.00245664
-0.0226767 0.0234326 -0.00264562
0.00075589 0.0253223 -0.00132281
-0.0736993 0.054991 -0.0665184
-0.0187083 0.10488 -0.152312
-0.177445 0.0291018 -0.00377945
0.0158737 -0.0103935 0.00321253
0.0096376 -0.00396842 -0.000188973
-0.00396842 0.00774788 -0.00925966
-0.00831479 0.00812582 -0.00982658
0.0222988 0.0075589 0.0417629
Vibration 14
0.00245664 0.000566918 -0.0385504
0.00132281 0.00075589 -0.0315584
0.00245664 0.00075589 0.00642507
0.00661404 0.00188973 0.0306136
-0.00566918 0.00188973 -0.0175745
0.00170075 -0.00170075 -0.0213539
-0.0228657 0.0107714 -0.0555579
0.000188973 -0.0151178 0.00170075
-0.00132281 -0.0326923 0.0289128
0.00113384 0.00113384 -0.0406291
-0.00774788 -0.0096376 -0.034771
-0.00642507 -0.0145509 -0.0154958
0.00302356 -0.00680301 -0.00283459
0.00661404 0.00831479 -0.0119053
0.0062361 0.0105825 -0.0304246
0.00982658 -0.0179524 0.0255113
0.00302356 -0.00699199 0.013606
0.0102045 -0.0194642 0.0158737
0.0102045 -0.020598 0.00585815
0.00170075 -0.0062361 -0.0075589
-0.00510226 -0.00264562 -0.00510226
-0.00396842 -0.00377945 0.0062361
-0.00075589 0.0075589 -0.0294797
-0.0164406 0.0194642 0.0185193
0.0102045 0.0400622 0.0164406
0.00472431 0.00264562 0.0266451
0.0062361 -0.00585815 0.0251334
-0.00585815 0.000188973 0.00699199
0.00170075 0.00434637 0.00377945
0.0132281 -0.0228657 0.0385504
0.00226767 -0.0249444 0.0289128
-0.0211649 -0.00604712 0.00113384
-0.0260782 0.00566918 -0.0102045
0.0119053 0.0075589 0.00132281
-0.0107714 0.0162516 0.00888171
0.020787 0.054991 0.0349599
0.00113384 0.000377945 -0.0508336
0.000377945 0.0410071 0.000377945
-0.0153068 -0.0158737 -0.0451645
-0.0113384 -0.0241885 -0.0100155
0.0111494 0.0171965 -0.00321253
0.0111494 0.0202201 -0.0355268
0.0162516 -0.0257003 0.0232436
0.0162516 -0.0294797 0.00718096
-0.0115273 0.00321253 -0.0124722
-0.00944863 -0.000188973 0.00793685
0.013984 0.00566918 -0.0366607
-0.0183303 0.0143619 -0.0281569
-0.000188973 0.0151178 -0.0425188
-0.0158737 0.00793685 0.0394953
-0.0102045 0.0319364 -0.0213539
-0.041574 0.0434637 0.034771
0.0260782 -0.034204 0.0540462
0.00850377 -0.0394953 0.0406291
-0.0353379 -0.00113384 -0.0109604
-0.0442196 0.0198421 -0.0325033
-0.0294797 0.0120942 -0.0873053
Vibration 15
0.000566918 -0.0103935 0.0041574
0.00132281 -0.0149288 0.000566918
0.00793685 -0.0187083 -0.00075589
0.0153068 -0.0141729 0.00850377
0.0122832 -0.00604712 -0.0096376
0.00812582 -0.0062361 0.00151178
0.0105825 0.00604712 -0.0398732
0.00925966 0.013795 0.000377945
0.0113384 0.0447865 -0.000377945
-0.00396842 -0.00907068 0.00510226
-0.00661404 -0.0075589 0.00302356
-0.00661404 -0.00699199 0.00075589
-0.00510226 -0.0107714 0.000566918
-0.00321253 -0.0128501 0.00245664
-0.00340151 -0.0122832 0.0041574
-0.00359048 -0.0105825 -0.00302356
0.00774788 -0.020787 -0.000188973
0.00321253 -0.0119053 -0.00188973
0.00264562 -0.00396842 -0.000377945
0.00774788 -0.00472431 0.00283459
0.0130391 -0.0175745 0.00793685
0.0126612 -0.0241885 0.00548021
0.00661404 0.0130391 0
-0.00604712 -0.0141729 -0.00812582
0.00283459 0.0515895 -0.0102045
0.0149288 -0.0171965 0.00132281
0.0020787 -0.00812582 -0.00491329