[Molden Format]
[FREQ]
-13.2
14.9
17.3
27.4
28.9
38.1
39.8
44.6
50.9
55.4
56.0
67.4
85.2
94.2
106.3
113.1
134.1
140.1
157.1
161.0
172.1
179.7
209.4
226.0
237.9
252.8
263.9
278.0
285.0
313.5
318.3
334.3
347.0
357.1
360.5
370.6
377.5
408.4
441.8
449.8
481.2
493.4
502.2
519.9
520.7
532.6
546.4
558.4
578.5
590.4
597.8
614.3
615.4
626.3
641.9
656.7
673.0
675.2
698.4
707.9
721.0
726.1
760.9
769.3
794.9
813.1
820.6
827.8
845.6
858.3
881.3
882.5
895.3
901.1
937.1
969.8
973.1
1001.8
1005.6
1009.6
1010.5
1014.7
1018.1
1029.1
1032.3
1043.7
1069.1
1070.4
1080.5
1087.7
1125.7
1142.2
1168.1
1177.1
1177.5
1183.8
1189.2
1192.4
1207.4
1229.9
1250.5
1254.3
1264.5
1266.7
1275.2
1282.4
1285.9
1294.6
1298.9
1316.7
1319.0
1321.3
1333.2
1335.0
1341.4
1349.6
1350.2
1364.3
1378.7
1384.7
1393.1
1425.5
1443.6
1507.9
1520.7
1521.1
1529.2
1537.0
1560.3
1578.3
1601.4
1608.2
1630.3
1652.9
1694.5
1697.9
1699.1
1701.6
1707.4
1709.1
1710.3
1786.3
1877.9
2452.0
2651.4
2653.5
2667.2
2672.6
2737.1
2743.9
2744.8
2744.9
2745.6
2748.8
2749.6
2751.2
2753.2
2755.7
2763.1
2764.6
2766.8
2767.7
2768.6
2779.6
2789.4
       
[FR-COORD]
C -2.50086 -3.41058 0.594886
C 0.13606 -3.41058 0.594886
C 1.43203 -1.10039 0.594886
N 0.210138 1.13384 0.635893
C -2.33362 1.15047 0.634192
C -3.79703 -1.08376 0.587327
N -3.45574 3.61486 0.64005
C -6.46381 -0.977744 0.501722
N -8.64776 -0.863227 0.417063
C -3.87356 -5.81053 0.601311
C -3.37165 -7.61371 -1.27557
C -4.65534 -9.89253 -1.29106
C -6.45587 -10.364 0.606791
C -6.96326 -8.59958 2.50124
C -5.65916 -6.3166 2.47762
O -7.56949 -12.6578 0.370008
C 4.21107 -0.969996 0.516651
C 5.60776 -1.3383 2.72272
C 8.22787 -1.1465 2.64392
C 9.45411 -0.591673 0.368875
C 8.04135 -0.241696 -1.83322
C 5.41784 -0.420653 -1.7616
C 12.2609 -0.363394 0.317285
C -9.53046 -13.2636 2.10515
C -2.27693 5.75629 1.01724
C -0.305002 8.48506 -3.37108
C 2.12726 7.51525 -2.41734
C 2.41299 6.4965 -0.00661404
C 0.326734 6.11175 1.85439
C 4.20105 7.72369 -4.03948
C 6.57209 6.90506 -3.25033
C 6.87879 5.91163 -0.828834
C 4.81351 5.72039 0.78726
O 0.774221 6.28032 4.10165
O -0.780268 10.5526 -4.18102
O -2.10062 6.64088 -3.34406
H 1.18675 -5.18125 0.606035
H -5.34339 3.66153 0.22261
H -1.97722 -7.20874 -2.74161
H -4.3065 -11.3125 -2.73481
H -8.3473 -8.9694 3.96805
H -6.03522 -4.91461 3.94518
H 4.64514 -1.74819 4.49736
H 9.32599 -1.41729 4.36073
H 8.98243 0.188973 -3.60881
H 4.31009 -0.10677 -3.46973
H 12.9357 1.04011 1.69565
H 12.9926 0.208437 -1.53843
H 13.1748 -2.16997 0.792173
H -10.1231 -15.1437 1.45188
H -11.0967 -11.9204 1.95133
H -8.80064 -13.3668 4.03721
H 3.95935 8.53759 -5.9173
H 8.18459 7.05132 -4.51758
H 8.73261 5.27555 -0.200689
H 5.04821 4.95033 2.69154
H -3.79911 7.26713 -3.8231

[FR-NORM-COORD]
Vibration 1
0.000377945 0.0041574 -0.00151178
0.000566918 0.00359048 -0.00377945
0.000566918 0.00359048 0.00850377
0.000944863 0.00340151 0.0200311
0.00075589 0.00396842 0.0181414
0.00075589 0.00434637 0.00869274
0.0020787 0.00434637 0.0257003
0.00075589 0.00472431 0.00944863
0.00075589 0.00510226 0.0103935
0.000188973 0.0041574 -0.00812582
-0.0020787 0.00982658 -0.0141729
-0.00170075 0.0096376 -0.0188973
0.00132281 0.00359048 -0.0175745
0.00340151 -0.00188973 -0.0119053
0.00264562 -0.00151178 -0.00736993
0.00188973 0.00377945 -0.0222988
0.00075589 0.00491329 0.0107714
-0.0041574 0.0801244 0.0262672
-0.0041574 0.082959 0.0264562
0 0.0128501 0.0117163
0.00453534 -0.0616051 -0.00321253
0.00491329 -0.0663294 -0.0041574
-0.000377945 0.0160627 0.0107714
0.00510226 -0.0020787 -0.020787
0.00548021 0.00377945 0.0200311
-0.00736993 -0.00396842 0.00566918
-0.00642507 -0.013606 -0.00680301
0.00245664 -0.0113384 -0.00680301
0.0111494 0 0.00548021
-0.0145509 -0.0255113 -0.0187083
-0.013984 -0.0357158 -0.0309915
-0.00491329 -0.0334482 -0.0311805
0.00340151 -0.0213539 -0.0192752
0.0236216 0.00472431 0.00245664
-0.00264562 -0.00340151 0.0041574
-0.0160627 0.00472431 0.020787
0.000377945 0.00359048 -0.0124722
0 0.00566918 0.0349599
-0.00434637 0.0143619 -0.0151178
-0.00340151 0.013795 -0.0236216
0.00548021 -0.00642507 -0.0111494
0.00434637 -0.00585815 -0.00283459
-0.00793685 0.137005 0.0374166
-0.00793685 0.140785 0.0379835
0.00831479 -0.116596 -0.0145509
0.00869274 -0.124722 -0.0171965
0.000188973 0.0215429 0.00472431
-0.00132281 0.00907068 0.00812582
0.000377945 0.0179524 0.0173855
0.00491329 -0.000566918 -0.0249444
0.0041574 -0.00245664 -0.0141729
0.00850377 -0.00718096 -0.0222988
-0.0213539 -0.0272121 -0.0185193
-0.020409 -0.0455424 -0.0404401
-0.00434637 -0.041574 -0.0410071
0.0105825 -0.0200311 -0.0196532
-0.0162516 0.0119053 0.0308025
Vibration 2
-0.00566918 -0.000944863 -0.0117163
-0.00566918 0.000566918 -0.0151178
-0.00718096 0.00132281 -0.0181414
-0.00869274 0.000377945 -0.0173855
-0.00850377 -0.00075589 -0.0166296
-0.00718096 -0.00170075 -0.0141729
-0.00850377 -0.00075589 -0.0175745
-0.00736993 -0.00302356 -0.013984
-0.00736993 -0.00396842 -0.0141729
-0.0041574 -0.00170075 -0.00359048
-0.00472431 -0.00774788 0.0020787
-0.00226767 -0.00925966 0.0119053
0.000944863 -0.00453534 0.0158737
0.000944863 0.00170075 0.0100155
-0.00170075 0.00302356 0.000188973
0.00377945 -0.00699199 0.0260782
-0.00736993 0.00548021 -0.0219208
-0.00491329 0.0425188 -0.0175745
-0.00548021 0.0508336 -0.0219208
-0.00907068 0.0230547 -0.0306136
-0.0117163 -0.0147399 -0.0349599
-0.0107714 -0.0236216 -0.0309915
-0.0100155 0.0330702 -0.0359048
0.00774788 -0.00359048 0.0317474
-0.00907068 -0.00188973 -0.00888171
0.02759 -0.00151178 0.0041574
0.0192752 -0.00566918 0.0211649
0.00075589 -0.00774788 0.0224877
-0.0128501 -0.00774788 0.00718096
0.0309915 -0.00718096 0.0360938
0.0243775 -0.0107714 0.0523454
0.00585815 -0.0130391 0.0536682
-0.00585815 -0.0111494 0.0389284
-0.027401 -0.0141729 0.0105825
0.0376055 -0.00170075 -0.00226767
0.0226767 0.00302356 -0.00377945
-0.00453534 0.00113384 -0.0143619
-0.00661404 0.000188973 -0.0257003
-0.00699199 -0.0115273 -0.00113384
-0.00245664 -0.013984 0.0166296
0.00302356 0.00566918 0.0128501
-0.00151178 0.00793685 -0.00434637
-0.00226767 0.0653845 -0.0109604
-0.00359048 0.0797464 -0.0187083
-0.0141729 -0.0366607 -0.0417629
-0.0130391 -0.0525344 -0.034771
-0.0103935 0.0296687 -0.0325033
-0.0160627 0.0417629 -0.0355268
-0.00377945 0.0336371 -0.0445975
0.0102045 -0.00736993 0.0404401
0.00491329 -0.00718096 0.0287238
0.0109604 0.00548021 0.0309915
0.0455424 -0.00566918 0.034771
0.0336371 -0.0122832 0.0636838
0.000566918 -0.0162516 0.0663294
-0.0202201 -0.0128501 0.0398732
0.0270231 0.00661404 -0.0145509
Vibration 3
-0.000188973 -0.00642507 -0.0151178
-0.000188973 -0.0075589 -0.00944863
0.000944863 -0.00831479 -0.0128501
0.00188973 -0.0075589 -0.0213539
0.00188973 -0.00642507 -0.0264562
0.000944863 -0.00585815 -0.0264562
0.00302356 -0.00585815 -0.0258892
0.00132281 -0.00472431 -0.0364717
0.00170075 -0.00377945 -0.0457314
-0.000566918 -0.0062361 -0.00491329
0.00510226 -0.0192752 0.00907068
0.00736993 -0.020598 0.0226767
0.00359048 -0.00869274 0.0219208
-0.00340151 0.00510226 0.00736993
-0.00548021 0.00604712 -0.0062361
0.0075589 -0.0120942 0.0370386
0.00132281 -0.0103935 -0.00321253
-0.00831479 0.00132281 0.00491329
-0.00774788 -0.0020787 0.0147399
0.00245664 -0.0170075 0.0166296
0.0119053 -0.0281569 0.00869274
0.0113384 -0.0247554 -0.00132281
0.00283459 -0.0213539 0.0270231
0.00642507 -0.00283459 0.0391173
0.00170075 -0.00774788 -0.0119053
-0.0041574 0.0574477 0.0298577
-0.00453534 0.0323143 0.00566918
-0.00170075 -0.00113384 -0.00869274
0.00113384 -0.0122832 -0.00793685
-0.00944863 0.0419519 0.00113384
-0.0115273 0.0173855 -0.0181414
-0.00850377 -0.0162516 -0.0323143
-0.00377945 -0.0255113 -0.0272121
0.00302356 -0.0258892 -0.00736993
-0.000944863 0.0738883 0.0702978
-0.00850377 0.0610381 0.00113384
-0.000944863 -0.00812582 -0.000944863
0.00453534 -0.0041574 -0.0326923
0.00812582 -0.0285349 0.00925966
0.0122832 -0.0308025 0.0338261
-0.00699199 0.0147399 0.00642507
-0.0105825 0.0164406 -0.0173855
-0.0162516 0.0130391 0.00321253
-0.0153068 0.00699199 0.0211649
0.0200311 -0.0398732 0.0100155
0.0188973 -0.0334482 -0.00774788
-0.000566918 -0.0168186 0.0241885
0.0113384 -0.0296687 0.027779
-0.00170075 -0.020787 0.0379835
0.0122832 -0.0096376 0.0536682
0.00340151 -0.00793685 0.0253223
0.00340151 0.0149288 0.041196
-0.0113384 0.0684081 0.0128501
-0.0151178 0.0243775 -0.0219208
-0.0100155 -0.0355268 -0.0474321
-0.00151178 -0.0521564 -0.0383614
-0.00925966 0.0746442 0.0219208
Vibration 4
-0.013795 0.0170075 -0.0102045
-0.013795 0.0151178 -0.0126612
-0.0119053 0.013984 -0.00491329
-0.0096376 0.0147399 0.000377945
-0.00982658 0.0166296 0.000944863
-0.0119053 0.0177634 -0.000944863
-0.00831479 0.0173855 0.00302356
-0.0120942 0.0188973 0.00812582
-0.0124722 0.0190862 0.0170075
-0.0103935 0.0151178 -0.0143619
-0.0162516 0.0258892 -0.0264562
0.000377945 0.0166296 -0.0221098
0.0238105 -0.00377945 -0.00472431
0.0245664 -0.0115273 0.00245664
0.00699199 -0.00132281 -0.00264562
0.0447865 -0.0147399 0.00264562
-0.0113384 0.00491329 -0.00113384
-0.0164406 -0.00907068 -0.000188973
-0.0149288 -0.0298577 0.00264562
-0.00831479 -0.0364717 0.00453534
-0.00359048 -0.0190862 0.00434637
-0.00510226 0.00170075 0.00151178
-0.0062361 -0.0629279 0.00718096
0.0795575 -0.0445975 0.0313695
-0.00736993 0.0171965 0.00226767
0.00774788 0.00661404 -0.00642507
0.0020787 -0.00188973 -0.00132281
-0.00434637 0.00434637 0.0020787
-0.00718096 0.0171965 0.00170075
0.00453534 -0.0160627 -0.000188973
0.000188973 -0.0236216 0.00453534
-0.00604712 -0.0170075 0.00812582
-0.00831479 -0.00283459 0.00680301
-0.00869274 0.0260782 0.00132281
0.0200311 0.00472431 -0.0190862
-0.00359048 0.0179524 0.00548021
-0.0153068 0.0141729 -0.0196532
-0.00850377 0.0183303 0.0041574
-0.0328812 0.0410071 -0.0381725
-0.00321253 0.0239995 -0.0300466
0.0391173 -0.0253223 0.0126612
0.00793685 -0.00718096 0.00302356
-0.0215429 -0.00510226 -0.0020787
-0.0187083 -0.0419519 0.00321253
0.00151178 -0.0226767 0.0062361
-0.00113384 0.013795 0.00113384
0.00491329 -0.0636838 0.00226767
0.00151178 -0.0771008 0.00585815
-0.0234326 -0.0695419 0.0154958
0.096754 -0.0525344 0.0381725
0.0582036 -0.0667073 0.0557469
0.109415 -0.0360938 0.020409
0.0096376 -0.020976 -0.00283459
0.00188973 -0.0349599 0.00529123
-0.00925966 -0.0224877 0.0119053
-0.0130391 0.00264562 0.0096376
-0.000566918 0.0257003 0.00491329
Vibration 5
-0.00226767 0.00718096 0.013984
-0.00188973 0.00869274 0.0226767
-0.0020787 0.00850377 0.0177634
-0.0020787 0.00850377 0.0158737
-0.00188973 0.00774788 0.0111494
-0.00188973 0.0075589 0.00510226
-0.00302356 0.00736993 0.00982658
-0.00113384 0.0100155 -0.013795
-0.000377945 0.0132281 -0.0309915
0.0020787 0.00510226 0.0100155
0.0521564 -0.0158737 0.0428968
0.0616051 -0.020976 0.0398732
0.0181414 -0.00510226 0.00264562
-0.0336371 0.0158737 -0.0309915
-0.0404401 0.0198421 -0.0262672
0.0334482 -0.0126612 0.0041574
-0.00226767 0.00472431 0.0075589
0.00850377 0.00226767 0.000188973
0.00907068 -0.00944863 -0.0151178
-0.00132281 -0.0187083 -0.0228657
-0.0124722 -0.013795 -0.0151178
-0.0126612 -0.0020787 0.000188973
-0.000377945 -0.034582 -0.0400622
-0.00982658 0.00283459 -0.0393063
-0.00453534 0.00850377 0.00869274
-0.00226767 0.00132281 0.00188973
-0.00434637 -0.00359048 0.0020787
-0.00510226 0.00283459 0.00491329
-0.00491329 0.0126612 0.00736993
-0.00529123 -0.0147399 -0.000377945
-0.00699199 -0.0190862 0
-0.0075589 -0.0119053 0.00302356
-0.00661404 -0.000944863 0.00566918
-0.00453534 0.0230547 0.00642507
0.00321253 0.000566918 -0.00321253
-0.00812582 0.00699199 0.00888171
-0.000944863 0.00925966 0.0309915
-0.00283459 0.00661404 0.00869274
0.0842818 -0.0281569 0.0701088
0.101856 -0.0372276 0.0653845
-0.0676522 0.0287238 -0.0597153
-0.0795575 0.034582 -0.0502667
0.0168186 0.00869274 0.00604712
0.0175745 -0.0122832 -0.020976
-0.020598 -0.0196532 -0.020787
-0.020976 0.00113384 0.00604712
0.0156847 -0.0359048 -0.0466762
-0.00831479 -0.0419519 -0.0455424
-0.00774788 -0.0389284 -0.0425188
0.0151178 -0.00850377 -0.0291018
-0.0111494 -0.00548021 -0.0988327
-0.0602823 0.0321253 -0.0185193
-0.00453534 -0.0200311 -0.00283459
-0.00774788 -0.0281569 -0.00188973
-0.00869274 -0.0149288 0.00340151
-0.00718096 0.00472431 0.00793685
-0.00699199 0.0111494 0.0102045
Vibration 6
-0.0200311 0.00831479 -0.0181414
-0.0194642 0.000566918 -0.0170075
-0.0122832 -0.00377945 -0.00604712
-0.0062361 -0.00075589 0.0062361
-0.00585815 0.00736993 0.00585815
-0.0132281 0.0122832 -0.0105825
0.00604712 0.0124722 0.0247554
-0.0122832 0.0234326 -0.020787
-0.0113384 0.034393 -0.0306136
-0.0226767 0.0100155 -0.0198421
-0.00453534 -0.0020787 -0.00359048
0.00812582 -0.00925966 0.00812582
0.00151178 -0.00453534 0.00321253
-0.0238105 0.0115273 -0.0185193
-0.0355268 0.0181414 -0.0298577
0.0228657 -0.0166296 0.0215429
-0.0122832 -0.00491329 -0.00359048
-0.0147399 -0.0120942 -0.00321253
-0.0154958 0.00132281 0.00264562
-0.0141729 0.0219208 0.00850377
-0.0115273 0.0247554 0.00718096
-0.0107714 0.0109604 0.00113384
-0.0156847 0.0427078 0.0164406
0.0326923 -0.0238105 0.0298577
0.0234326 0.00359048 0.0241885
-0.00075589 -0.0257003 0.00850377
0.00774788 -0.0117163 0.00132281
0.0228657 -0.0102045 0.000188973
0.0325033 -0.0215429 0.00888171
0.000377945 0.00113384 -0.00661404
0.00850377 0.0158737 -0.0158737
0.0236216 0.0171965 -0.0173855
0.0306136 0.00377945 -0.00982658
0.048377 -0.0476211 0.00793685
-0.0147399 -0.0287238 0.00907068
0.00944863 -0.0359048 0.0126612
-0.0247554 -0.00264562 -0.0230547
0.00359048 0.0251334 0.0385504
0.00132281 -0.00680301 0.000566918
0.0243775 -0.0194642 0.0221098
-0.0332592 0.0181414 -0.0258892
-0.0536682 0.0289128 -0.0447865
-0.0160627 -0.0262672 -0.00736993
-0.0173855 -0.00283459 0.00321253
-0.0103935 0.0387394 0.0111494
-0.00907068 0.0143619 0.00075589
-0.0304246 0.0462983 0.0200311
-0.0149288 0.0506447 0.0190862
-0.00340151 0.0493218 0.0168186
0.0597153 -0.0404401 0.0532903
0.0132281 -0.048188 0.0134171
0.034204 0.0105825 0.0311805
-0.0119053 -0.000188973 -0.00566918
0.00283459 0.0264562 -0.0219208
0.0298577 0.0283459 -0.0243775
0.0425188 0.0041574 -0.0109604
0.00680301 -0.0462983 0.00831479
Vibration 7
-0.0166296 -0.00302356 0.0249444
-0.0158737 -0.00548021 0.0162516
-0.0130391 -0.0075589 0.00170075
-0.0105825 -0.00604712 -0.0128501
-0.0103935 -0.00283459 0.000188973
-0.013984 -0.00151178 0.0291018
-0.00302356 0.000566918 -0.0177634
-0.0147399 0.00434637 0.0672742
-0.0160627 0.0109604 0.105069
-0.0128501 -0.00529123 0.0187083
0.0113384 -0.00321253 0.0222988
0.0219208 -0.00869274 0.00944863
0.00604712 -0.0170075 -0.0075589
-0.0192752 -0.0194642 -0.0122832
-0.0281569 -0.013795 0.00151178
0.0196532 -0.0224877 -0.0190862
-0.0132281 -0.00699199 0.000566918
-0.0134171 -0.00321253 0.00132281
-0.0141729 0.0075589 0.00340151
-0.0149288 0.013984 0.00472431
-0.0143619 0.00642507 0.00321253
-0.013606 -0.00396842 0.00113384
-0.0160627 0.0302356 0.00793685
0.00245664 -0.0311805 -0.0417629
0.00566918 -0.00113384 -0.0300466
0.0241885 0.0241885 -0.0109604
0.0211649 0.0160627 -0.0119053
0.0120942 -0.00585815 -0.0202201
0.00699199 -0.0120942 -0.0272121
0.0270231 0.0302356 -0.00283459
0.0236216 0.020598 -0.00264562
0.013984 -0.00434637 -0.0117163
0.00831479 -0.0175745 -0.020409
0.00377945 -0.0234326 -0.0255113
0.0289128 0.0283459 -0.00359048
0.0217318 0.0266451 -0.0196532
-0.0177634 -0.00642507 0.0196532
-0.00302356 0.00396842 -0.0162516
0.0228657 0.00321253 0.034771
0.0417629 -0.00680301 0.0124722
-0.0319364 -0.0255113 -0.0257003
-0.0474321 -0.0168186 -0.000566918
-0.0132281 -0.0075589 0.000377945
-0.0143619 0.0117163 0.00434637
-0.0145509 0.00982658 0.00377945
-0.013606 -0.00812582 0.000188973
-0.0258892 0.0336371 0.00925966
-0.0173855 0.0351489 0.00907068
-0.0062361 0.0353379 0.00831479
0.0187083 -0.0340151 -0.048188
-0.00188973 -0.0383614 -0.0599043
-0.0194642 -0.027401 -0.0332592
0.0340151 0.0489439 0.00434637
0.0283459 0.0323143 0.00472431
0.0109604 -0.0132281 -0.0117163
0.00113384 -0.0366607 -0.0272121
0.0219208 0.0315584 -0.013795
Vibration 8
-0.00151178 0.00302356 0.00377945
-0.00170075 0.00359048 0.00359048
-0.00170075 0.00396842 0.00226767
-0.00170075 0.00340151 -0.00075589
-0.00188973 0.00283459 -0.00113384
-0.00188973 0.00302356 0.00302356
-0.00075589 0.00321253 -0.00680301
-0.0020787 0.00321253 0.00699199
-0.0020787 0.00377945 0.0111494
-0.00075589 0.00264562 0.00302356
0.00113384 0.00377945 0.00245664
0.00226767 0.00321253 0.000566918
0.00132281 0.00151178 -0.000566918
-0.000566918 0.000377945 0
-0.00151178 0.000944863 0.00170075
0.00264562 0.00113384 -0.00245664
-0.00132281 0.000377945 0.00283459
-0.0041574 0.0357158 0.0105825
-0.00283459 0.0143619 0.00642507
0.00113384 -0.0408181 -0.00491329
0.00302356 -0.0659514 -0.0100155
0.00170075 -0.0453534 -0.00642507
0.00396842 -0.0774788 -0.0126612
0.00226767 -0.00113384 -0.00377945
0.00340151 0.00170075 -0.0113384
-0.0126612 -0.0154958 -0.00472431
-0.000944863 0.0222988 0.00434637
0.0041574 0.0170075 0.00151178
0.00283459 -0.00699199 -0.00529123
0.00264562 0.0585815 0.013606
0.0102045 0.0844708 0.0179524
0.013606 0.0725655 0.0126612
0.0105825 0.0400622 0.00491329
-0.000377945 -0.0285349 -0.00283459
-0.0476211 -0.0194642 0.00604712
0.0228657 -0.0514005 -0.0317474
-0.00132281 0.00377945 0.00510226
-0.000377945 0.0041574 -0.0075589
0.00170075 0.00510226 0.00340151
0.00377945 0.0041574 0
-0.00113384 -0.00113384 -0.000944863
-0.00302356 0 0.00226767
-0.00718096 0.0776677 0.0185193
-0.00453534 0.0391173 0.0115273
0.00604712 -0.103746 -0.0175745
0.00359048 -0.0670853 -0.0115273
0.02759 -0.0859825 -0.0156847
0.0062361 -0.0884392 -0.0151178
-0.0196532 -0.089951 -0.0143619
0.00377945 -0.00113384 -0.00510226
0.00151178 -0.00188973 -0.00377945
0.00132281 -0.00151178 -0.00340151
-0.00075589 0.0651955 0.0168186
0.0130391 0.112628 0.0249444
0.0187083 0.0901399 0.0147399
0.0130391 0.0330702 0.00188973
0.0170075 -0.082581 -0.0517785
Vibration 9
0.00642507 0.00113384 -0.034393
0.00680301 0.00434637 -0.0604712
0.00529123 0.00491329 -0.0506447
0.00434637 0.00434637 -0.034393
0.00453534 0.00170075 -0.0162516
0.00548021 0.00075589 -0.00850377
-0.000566918 -0.000377945 0.00151178
0.0041574 0.00396842 0.034204
0.00283459 0.00944863 0.0742662
0.00869274 0.000377945 -0.0217318
0.0213539 -0.020409 0.00151178
0.0211649 -0.020409 0.0168186
0.00566918 0.000944863 0.00718096
-0.0062361 0.020598 -0.0141729
-0.00359048 0.0185193 -0.027779
0.00396842 0.000188973 0.0232436
0.00585815 0.00377945 -0.0353379
-0.0162516 0.00188973 -0.020976
-0.0154958 -0.00321253 0.00548021
0.00831479 -0.00661404 0.0171965
0.0306136 -0.00377945 0.00340151
0.0291018 0.00132281 -0.0230547
0.00925966 -0.0130391 0.0466762
-0.0243775 0.0309915 0.00226767
-0.00566918 0 0.0124722
-0.0103935 -0.00982658 0.00264562
-0.0107714 -0.00774788 0.00585815
-0.00793685 0.00377945 0.0103935
-0.00642507 0.00359048 0.0119053
-0.0124722 -0.0162516 0.00245664
-0.0115273 -0.0115273 0.0041574
-0.00831479 0.00264562 0.0096376
-0.00642507 0.0102045 0.0124722
-0.00548021 0.00245664 0.0119053
-0.00774788 -0.0130391 -0.0075589
-0.013795 -0.0062361 0.0120942
0.00888171 0.00529123 -0.0805023
-0.00113384 -0.00188973 0.00321253
0.0313695 -0.0364717 0.00642507
0.0321253 -0.0362827 0.0349599
-0.0170075 0.0368497 -0.0200311
-0.0109604 0.0317474 -0.0419519
-0.034771 0.0041574 -0.0304246
-0.0330702 -0.00491329 0.0164406
0.0491329 -0.00604712 0.0128501
0.0468652 0.00302356 -0.0340151
-0.00340151 -0.00472431 0.0445975
0.0311805 -0.027401 0.0510226
0.000377945 -0.0115273 0.0695419
-0.0243775 0.0260782 0.0166296
-0.0154958 0.0368497 -0.0366607
-0.0529123 0.0506447 0.0141729
-0.0145509 -0.0262672 -0.00170075
-0.0130391 -0.0187083 0.00132281
-0.00718096 0.00736993 0.0111494
-0.0041574 0.020787 0.0164406
-0.0124722 -0.00529123 0.00850377
Vibration 10
-0.00075589 0.0126612 0.00850377
-0.00075589 0.0105825 0.0105825
0.00132281 0.00925966 0.00170075
0.00226767 0.0100155 -0.0119053
0.00264562 0.0113384 -0.0141729
0.000377945 0.0130391 0.00132281
0.00548021 0.013984 -0.0396842
0 0.0164406 0.0126612
-0.000188973 0.020409 0.0245664
-0.000566918 0.0126612 0.00642507
0.00226767 0.0175745 0.00226767
0.00510226 0.0162516 -0.00321253
0.00566918 0.0100155 -0.0041574
0.0020787 0.00548021 -0.00113384
-0.000944863 0.0075589 0.00434637
0.00982658 0.00850377 -0.00944863
0.00132281 0.00718096 0.00075589
0.00340151 0 -0.00170075
0.00340151 -0.000188973 -0.00377945
0.00151178 0.00642507 -0.00321253
-0.000566918 0.0120942 -0.00113384
-0.000566918 0.0128501 0.00113384
0.000944863 0.0115273 -0.00359048
0.0158737 -0.0020787 -0.00661404
0.00661404 0.0100155 -0.034204
-0.00812582 -0.020787 0.0253223
-0.000566918 -0.0279679 0.00226767
0.00491329 -0.00566918 0.0111494
-0.00472431 0.0075589 0.000944863
-0.0103935 -0.0610381 -0.0120942
-0.0107714 -0.0644397 -0.0113384
-0.00283459 -0.0308025 0.00113384
0.00377945 -0.00283459 0.013795
-0.0262672 0.0134171 0.0041574
-0.0470542 0.0194642 0.153257
0.0366607 -0.0676522 -0.112817
-0.00226767 0.0096376 0.0175745
0.0120942 0.0151178 -0.069164
0.00245664 0.0226767 0.00377945
0.00699199 0.0198421 -0.0062361
0.00170075 0.00075589 -0.00264562
-0.00359048 0.00434637 0.00661404
0.00510226 -0.00529123 -0.0020787
0.00510226 -0.00491329 -0.00566918
-0.00226767 0.0168186 -0.00075589
-0.0020787 0.0181414 0.00302356
-0.0107714 0.0742662 -0.0614161
0.00604712 -0.0659514 -0.0255113
0.00699199 0.0362827 0.0782347
0.020976 -0.00264562 -0.00944863
0.0107714 -0.00718096 -0.000188973
0.0202201 -0.00377945 -0.00831479
-0.0143619 -0.0869274 -0.0219208
-0.0168186 -0.0922186 -0.0221098
-0.00226767 -0.0289128 0.000944863
0.0075589 0.0200311 0.0222988
0.0338261 -0.0833369 -0.123021
Vibration 11
-0.000188973 -0.0020787 0.00113384
-0.000188973 -0.00245664 0.00170075
0 -0.00245664 0.0020787
0.000377945 -0.00226767 0.00359048
0.000377945 -0.0020787 0.00340151
0.000188973 -0.0020787 0.000944863
0 -0.00226767 0.00585815
0.000377945 -0.0020787 -0.00283459
0.000377945 -0.00264562 -0.00661404
-0.00075589 -0.00188973 0.000377945
-0.00188973 -0.00113384 -0.000566918
-0.00283459 -0.00075589 -0.00132281
-0.00245664 -0.000944863 -0.000944863
-0.00132281 -0.00151178 -0.000188973
-0.000566918 -0.0020787 0.000566918
-0.00321253 -0.000566918 -0.00170075
0 -0.00302356 -0.000188973
0.00226767 -0.00340151 -0.00132281
0.0020787 -0.00548021 -0.00453534
0.000188973 -0.00831479 -0.00642507
-0.00188973 -0.0062361 -0.00453534
-0.0020787 -0.00377945 -0.00132281
-0.00113384 0.00944863 -0.00151178
-0.00132281 -0.00170075 0
-0.000377945 -0.00170075 0.00491329
0.00170075 0.00283459 -0.00264562
0.000944863 0.00529123 0.00151178
-0.000377945 0.00188973 0.000188973
0.000377945 0 0.000944863
0.00264562 0.0109604 0.0041574
0.00264562 0.0115273 0.00453534
0.000944863 0.00604712 0.00264562
-0.000377945 0.00151178 0.000377945
0.00245664 0.00075589 0.000566918
0.00566918 -0.00283459 -0.0194642
-0.00283459 0.00736993 0.0143619
-0.000188973 -0.00245664 0.00170075
-0.00075589 -0.00264562 0.00907068
-0.0020787 -0.00113384 -0.00075589
-0.00377945 -0.000188973 -0.0020787
-0.00113384 -0.00170075 0
0.000377945 -0.00245664 0.00113384
0.00377945 -0.0020787 -0.000377945
0.0041574 -0.0041574 -0.00566918
-0.0041574 -0.00548021 -0.00548021
-0.00377945 -0.00283459 -0.000188973
-0.069164 0.397976 -0.361127
0.0385504 -0.479235 -0.13606
0.0238105 0.158926 0.512683
-0.000944863 -0.00188973 0.000188973
-0.0020787 -0.00226767 0.00151178
0.000377945 -0.00170075 -0.00075589
0.00359048 0.0151178 0.00566918
0.00396842 0.0160627 0.00661404
0.000566918 0.00548021 0.00245664
-0.00151178 -0.00226767 -0.000944863
-0.00264562 0.00812582 0.0145509
Vibration 12
-0.00321253 -0.0170075 -0.00718096
-0.00245664 -0.0289128 -0.00812582
0.00850377 -0.0353379 0.00491329
0.0202201 -0.027779 0.0156847
0.0213539 -0.0160627 0.00982658
0.0102045 -0.00982658 0.00340151
0.0241885 -0.013606 0.00151178
0.0107714 0.00736993 0.00774788
0.0113384 0.0249444 0.0128501
-0.0164406 -0.00982658 -0.0151178
-0.0122832 -0.0175745 -0.00680301
-0.0164406 -0.0154958 -0.00510226
-0.0247554 -0.0075589 -0.0109604
-0.0374166 0.00434637 -0.0255113
-0.0330702 0.00188973 -0.027401
-0.0198421 -0.0105825 -0.00283459
0.00907068 -0.0406291 0.00188973
0.013795 -0.0258892 0.00113384
0.0124722 -0.0041574 -0.00113384
0.0062361 0.00264562 -0.00283459
0.00226767 -0.0234326 -0.00453534
0.00396842 -0.0451645 -0.0020787
0.00321253 0.0408181 -0.00321253
0.020787 -0.0330702 0.0353379
0.0124722 -0.0102045 -0.000944863
-0.00226767 0.0102045 -0.00245664
-0.000377945 0.0170075 -0.000377945
-0.00075589 0.0270231 0.00396842
-0.00170075 0.0419519 0.00604712
0.000188973 0.0102045 -0.000377945
-0.000566918 0.0120942 0.0041574
-0.00170075 0.020787 0.00793685
-0.00188973 0.0289128 0.00869274
-0.0126612 0.104313 0.00340151
-0.0105825 0.0102045 0.00245664
0.00642507 0.00151178 -0.00944863
-0.0107714 -0.0338261 -0.0181414
0.0253223 -0.0164406 -0.00869274
-0.00377945 -0.0260782 -0.00113384
-0.0107714 -0.0213539 0.00188973
-0.0500777 0.0154958 -0.034582
-0.0417629 0.00907068 -0.0362827
0.0187083 -0.0285349 0.00321253
0.0156847 0.0102045 -0.000944863
-0.00226767 -0.0239995 -0.00699199
0.00075589 -0.061983 -0.00302356
-0.013984 0.0360938 0.0100155
-0.00642507 0.068975 0.00170075
0.02759 0.048188 -0.0219208
0.0421409 -0.0476211 0.0578256
-0.00453534 -0.0606602 0.0523454
0.0548021 -0.00774788 0.0239995
0.00113384 0.00283459 -0.00359048
0 0.00642507 0.0041574
-0.00245664 0.0217318 0.0103935
-0.00283459 0.0377945 0.0120942
0.0041574 -0.00566918 -0.0100155
Vibration 13
-0.0170075 0.00188973 -0.0119053
-0.0168186 -0.00604712 -0.0175745
-0.0105825 -0.0102045 -0.00699199
-0.00340151 -0.00661404 0.00793685
-0.00302356 0.00132281 0.00699199
-0.0102045 0.00529123 -0.00434637
0.00718096 0.00661404 0.0134171
-0.0096376 0.0115273 -0.0120942
-0.00907068 0.0154958 -0.0221098
-0.0120942 -0.00151178 -0.00661404
-0.0268341 0.00793685 -0.0198421
-0.00359048 -0.00529123 -0.00226767
0.0313695 -0.0257003 0.0255113
0.0470542 -0.0353379 0.0385504
0.0245664 -0.0222988 0.0222988
0.0566918 -0.0408181 0.0464873
-0.0107714 -0.0170075 -0.00736993
-0.013795 -0.0154958 -0.00529123
-0.0143619 -0.00812582 -0.00132281
-0.0128501 -0.00226767 0.000944863
-0.0096376 -0.0120942 -0.00283459
-0.00925966 -0.0194642 -0.00699199
-0.0143619 0.0171965 0.00793685
-0.0578256 0.0266451 -0.0591484
0.0134171 0.00264562 0.00831479
0.00472431 0.00170075 0.00283459
0.00812582 0.00604712 -0.00113384
0.0096376 0.0103935 0.000377945
0.0103935 0.020976 0.00377945
0.00642507 0.00377945 -0.00340151
0.00699199 0.00510226 -0.00359048
0.00869274 0.00869274 -0.00226767
0.0100155 0.0115273 0
0.0102045 0.0532903 0.00151178
-0.00434637 0.00302356 0.0119053
0.0124722 -0.00604712 -0.00226767
-0.0221098 -0.00925966 -0.0281569
0.00604712 0.0132281 0.0185193
-0.0566918 0.0255113 -0.0432747
-0.013984 0.00113384 -0.0111494
0.0788016 -0.054991 0.0636838
0.0370386 -0.0291018 0.0317474
-0.0154958 -0.0183303 -0.00699199
-0.0160627 -0.00491329 0.000377945
-0.00774788 -0.0120942 -0.00170075
-0.00736993 -0.0253223 -0.00907068
-0.02759 0.0185193 0.0130391
-0.0141729 0.0270231 0.0111494
-0.00283459 0.0224877 0.00566918
-0.0744552 0.0387394 -0.0786126
-0.0122832 0.068975 -0.153068
-0.165918 0.0194642 -0.0187083
0.00491329 0.000377945 -0.00453534
0.0062361 0.00340151 -0.00472431
0.00907068 0.0096376 -0.00264562
0.0117163 0.0154958 0.00132281
0.0102045 -0.0122832 -0.00188973
Vibration 14
-0.00529123 0.000188973 0.0239995
-0.00491329 -0.00661404 0.0289128
0.00170075 -0.0105825 -0.0096376
0.0075589 -0.0062361 -0.0404401
0.00812582 -0.000188973 -0.0260782
0.00132281 0.00302356 -0.00170075
0.0117163 0.0020787 -0.0257003
0.00188973 0.0124722 -0.0062361
0.00283459 0.0232436 -0.0126612
-0.00736993 0.000944863 0.0270231
-0.00472431 0.0105825 0.0179524
-0.00188973 0.00982658 0.00510226
-0.00151178 -0.00245664 0.00264562
-0.00283459 -0.0134171 0.0124722
-0.0062361 -0.0103935 0.0241885
0.00170075 -0.00226767 -0.0145509
0.00188973 -0.0173855 -0.0117163
-0.0020787 -0.0102045 -0.00774788
-0.00264562 -0.00302356 -0.00151178
0.00132281 -0.0041574 0.000377945
0.0062361 -0.0192752 -0.00510226
0.00642507 -0.0251334 -0.0109604
0.000188973 0.0124722 0.0096376
0.0041574 -0.0211649 -0.0190862
0.00944863 -0.00188973 -0.000944863
-0.00529123 0.00453534 0.000377945
-0.0117163 -0.0166296 -0.00321253
0.00245664 0.0266451 0.013795
0.00529123 -0.00510226 0.0100155
-0.0222988 -0.0544241 -0.0221098
-0.0134171 -0.0202201 -0.013795
0.00812582 0.0597153 0.0162516
0.0151178 0.0786126 0.0272121
0.00321253 -0.0444086 0.013606
0.0245664 0.0107714 -0.00226767
-0.0332592 0.0336371 0.00888171
-0.0100155 -0.00944863 0.0572587
0.0153068 0.0062361 -0.041385
-0.00472431 0.0198421 0.020409
-0.000566918 0.0179524 -0.00264562
-0.00151178 -0.0239995 0.0109604
-0.00925966 -0.0175745 0.0300466
-0.00548021 -0.0075589 -0.00888171
-0.00642507 0.00510226 0.00226767
0.00982658 -0.0241885 -0.00434637
0.0100155 -0.034204 -0.0149288
-0.0126612 0.0134171 0.0149288
0.00245664 0.0211649 0.0132281
0.00944863 0.0168186 0.00850377
0.0062361 -0.0158737 -0.0362827
0.0020787 -0.0219208 -0.00472431
0.0062361 -0.0381725 -0.020787
-0.0366607 -0.106203 -0.0427078
-0.0226767 -0.0512116 -0.0291018
0.0185193 0.102801 0.0291018
0.0298577 0.130769 0.0466762
-0.0260782 0.0610381 0.0181414
Vibration 15
-0.00113384 0.00925966 0.0262672
-0.00075589 0.00283459 0.0226767
0.00548021 -0.00132281 -0.0185193
0.0109604 0.00302356 -0.0394953
0.0111494 0.0075589 -0.0194642
0.00472431 0.0105825 0.00283459
0.00491329 0.00453534 -0.013984
0.00585815 0.0264562 -0.00680301
0.00774788 0.0508336 -0.020976
-0.00170075 0.0103935 0.0323143
0.0041574 0.020598 0.0234326
0.00661404 0.020409 0.00850377
0.00396842 0.00944863 0.00359048
0.00151178 -0.00321253 0.0145509
-0.00188973 0 0.0281569
0.0041574 0.0120942 -0.0194642
0.0062361 -0.0160627 -0.0241885
-0.00151178 -0.0226767 -0.0196532
-0.00188973 -0.0166296 -0.00680301
0.00718096 -0.00510226 0.00075589
0.0173855 -0.0198421 -0.00793685
0.0166296 -0.0245664 -0.020409
0.00472431 0.0302356 0.0224877
0.0128501 -0.0130391 -0.0190862
-0.00510226 0.00566918 0.0075589
-0.0122832 -0.00774788 0.00245664
-0.00925966 0.0141729 0.0168186
-0.0109604 -0.00944863 0.00699199
-0.00718096 0.00188973 0.0128501
-0.00491329 0.0353379 0.0247554