[Molden Format]
[FREQ]
14.7
22.4
26.7
30.3
34.4
41.2
44.7
52.5
70.7
84.8
99.8
118.4
124.4
135.6
143.1
148.9
176.9
190.2
205.0
212.1
227.1
229.2
243.1
256.6
269.3
278.0
299.2
304.8
323.8
339.5
346.9
355.4
359.7
365.9
383.1
406.0
427.8
439.5
446.3
466.0
493.4
506.3
520.2
528.4
538.0
550.9
561.3
567.7
585.0
592.0
602.0
614.6
617.6
623.4
642.9
661.6
664.8
675.0
689.5
711.3
722.6
726.9
754.4
769.0
784.2
805.3
827.4
831.3
873.1
882.1
883.3
883.6
895.2
902.0
907.8
945.6
967.7
991.0
1006.3
1007.6
1011.3
1015.0
1019.2
1031.5
1035.2
1045.0
1059.4
1070.2
1081.6
1084.1
1115.0
1125.7
1153.6
1159.9
1176.8
1177.2
1186.8
1195.6
1219.8
1236.3
1261.2
1264.3
1266.0
1268.9
1274.4
1280.7
1285.6
1290.0
1296.4
1301.4
1306.5
1313.0
1323.4
1338.4
1341.6
1349.4
1349.9
1357.6
1366.1
1372.3
1389.4
1395.5
1414.3
1429.3
1466.3
1509.2
1520.4
1525.7
1531.4
1543.8
1560.0
1593.8
1602.3
1615.3
1640.1
1685.0
1694.7
1698.1
1707.0
1708.9
1715.3
1723.6
1752.5
2454.3
2623.2
2651.0
2653.9
2666.2
2671.4
2737.3
2739.2
2743.5
2744.7
2746.0
2746.7
2749.4
2752.0
2753.3
2756.3
2760.8
2764.4
2764.5
2767.7
2768.5
2778.9
       
[FR-COORD]
C -1.60778 -2.73651 0.44881
C 1.04181 -2.73651 0.44881
C 2.40165 -0.480368 0.44881
N 1.12514 1.75404 0.450322
C -1.45377 1.81508 0.492085
C -2.87862 -0.397976 0.479235
N 1.46416 5.71737 2.71686
C -5.55995 -0.258892 0.438983
N -7.74561 -0.210515 0.395331
C -2.95969 -5.141 0.385882
C -2.29961 -6.95174 -1.43789
C -3.58103 -9.22602 -1.56885
C -5.5505 -9.68844 0.157225
C -6.20643 -7.92797 2.00991
C -4.89798 -5.65009 2.10553
O -6.65921 -11.968 -0.193886
C 5.18012 -0.491896 0.46166
C 6.46626 -0.656491 2.76051
C 9.09298 -0.659703 2.77695
C 10.4388 -0.504368 0.50588
C 9.13588 -0.361316 -1.78636
C 6.50614 -0.35508 -1.81376
C 13.2528 -0.487549 0.556335
C -8.84203 -12.5192 1.275
C -1.01157 5.82489 2.75787
C 2.34099 4.55254 0.397031
C 1.19752 5.63422 -1.98516
C -1.4583 5.71415 -1.90258
C -2.64259 4.6389 0.494352
C 2.51447 6.5256 -4.0563
C 1.13119 7.50826 -6.08737
C -1.49742 7.59481 -6.00801
C -2.82079 6.69246 -3.90077
O -4.96261 4.74378 0.916895
O 4.88834 4.31084 0.309726
O -2.28921 6.81851 4.65232
H 2.06925 -4.52703 0.465817
H 5.66219 4.46523 2.03316
H -0.786315 -6.54998 -2.78168
H -3.11276 -10.6465 -2.97745
H -7.71178 -8.29665 3.35332
H -5.39838 -4.25169 3.54267
H 5.41784 -0.777244 4.53081
H 10.1081 -0.777433 4.56237
H 10.1743 -0.237161 -3.55741
H 5.4906 -0.21883 -3.60087
H 13.983 1.05088 1.7514
H 14.0955 -0.238294 -1.32432
H 14.0061 -2.26692 1.3264
H -9.42198 -14.3632 0.515328
H -10.3257 -11.112 0.95828
H -8.35523 -12.6791 3.27773
H 4.57106 6.47156 -4.1026
H 2.12972 8.21086 -7.74107
H -2.54489 8.37205 -7.59991
H -4.88419 6.74538 -3.81025
H -4.19217 6.60195 4.24338

[FR-NORM-COORD]
Vibration 1
0.00132281 0.000188973 0.00264562
0.00151178 -0.000944863 -0.00075589
0.0020787 -0.00132281 0.00075589
0.00283459 -0.000944863 0.00132281
0.00302356 0 0.00907068
0.00226767 0.000566918 0.0111494
0.0151178 0.00321253 -0.00888171
0.00226767 0.00170075 0.020976
0.0020787 0.00283459 0.0292908
0.000377945 0.000944863 -0.00359048
-0.00359048 0.00831479 -0.0124722
-0.00548021 0.00982658 -0.020409
-0.00302356 0.00377945 -0.0192752
0.00151178 -0.0041574 -0.0103935
0.00321253 -0.00548021 -0.00245664
-0.00548021 0.0062361 -0.0281569
0.0020787 -0.00075589 0.00529123
-0.00170075 0.0835259 0.013795
-0.00170075 0.0857936 0.0183303
0.00188973 0.00510226 0.0149288
0.00566918 -0.0793685 0.0075589
0.00548021 -0.08277 0.00283459
0.00188973 0.00699199 0.0187083
-0.00377945 0.00151178 -0.0272121
0.0153068 0.00396842 0.00226767
0.00377945 -0.00151178 -0.0109604
-0.00718096 -0.0062361 -0.00793685
-0.00661404 -0.0041574 0.00434637
0.0041574 0.000944863 0.0119053
-0.0162516 -0.0124722 -0.0164406
-0.0251334 -0.0158737 -0.0120942
-0.0247554 -0.0134171 0.000377945
-0.0153068 -0.00774788 0.00869274
0.0062361 0.00226767 0.0228657
0.00321253 -0.00226767 -0.0238105
0.0245664 0.00736993 0.00661404
0.00075589 -0.00132281 -0.00340151
0.0126612 0.00151178 -0.0281569
-0.00548021 0.0132281 -0.0130391
-0.00869274 0.0156847 -0.02759
0.00359048 -0.00907068 -0.00925966
0.00661404 -0.0115273 0.00453534
-0.00472431 0.146454 0.0162516
-0.00453534 0.1508 0.0241885
0.00850377 -0.143052 0.00491329
0.00869274 -0.149666 -0.00396842
0.00132281 0.0160627 0.00718096
0.0041574 -0.00831479 0.0177634
0 0.0126612 0.0338261
-0.00699199 0.00585815 -0.0353379
-0.00283459 0.00472431 -0.0179524
-0.00075589 -0.00888171 -0.0289128
-0.0164406 -0.0149288 -0.0262672
-0.0323143 -0.020787 -0.0185193
-0.0315584 -0.0162516 0.00359048
-0.0149288 -0.00604712 0.0181414
0.0226767 0.00736993 0.0160627
Vibration 2
0.00548021 0.00075589 0.0234326
0.00548021 0.00170075 0.020976
0.00472431 0.00226767 0.0153068
0.00377945 0.00170075 0.0113384
0.00377945 0.000566918 0.0185193
0.00453534 0.000188973 0.0279679
0.00793685 0.0168186 -0.0134171
0.00434637 -0.00075589 0.0408181
0.0041574 -0.00132281 0.0532903
0.00548021 0.000944863 0.013606
0.00377945 0.0122832 0.00170075
-0.00151178 0.0160627 -0.0160627
-0.00491329 0.00869274 -0.0219208
-0.00075589 -0.00434637 -0.00812582
0.00453534 -0.00793685 0.00982658
-0.0124722 0.0154958 -0.0419519
0.00472431 0.00359048 0.0117163
0.00699199 -0.034771 0.00774788
0.00699199 -0.0326923 0.00548021
0.00491329 0.00736993 0.00699199
0.00283459 0.0453534 0.0103935
0.00283459 0.0436527 0.0128501
0.00491329 0.0102045 0.00491329
-0.0202201 0.013984 -0.0542351
0.00793685 0.0154958 -0.00661404
0.00170075 0.00283459 -0.00831479
-0.0062361 -0.013984 -0.0124722
-0.00604712 -0.0156847 -0.00472431
0.0020787 0.000188973 0.00661404
-0.013606 -0.0287238 -0.0234326
-0.020976 -0.0464873 -0.0270231
-0.020787 -0.0487549 -0.0196532
-0.0132281 -0.0330702 -0.00831479
0.00321253 0.00132281 0.0126612
0.00170075 0.00377945 -0.0141729
0.013606 0.027401 -0.00888171
0.0062361 0.0020787 0.020976
0.0062361 0.0126612 -0.0170075
0.00585815 0.0183303 0.00604712
-0.00340151 0.0253223 -0.0258892
-0.00188973 -0.0111494 -0.0113384
0.00736993 -0.0177634 0.020409
0.00869274 -0.0653845 0.00661404
0.00850377 -0.062172 0.00264562
0.00113384 0.0765339 0.0117163
0.00113384 0.0740773 0.0162516
0.00321253 0.00377945 0.0143619
0.00340151 0.0234326 0.00604712
0.00812582 0.00661404 -0.00680301
-0.027779 0.0239995 -0.0727545
-0.0117163 0.0249444 -0.0459203
-0.0272121 -0.00699199 -0.0542351
-0.013795 -0.0266451 -0.0292908
-0.0266451 -0.0585815 -0.0357158
-0.0264562 -0.0629279 -0.0228657
-0.0130391 -0.034582 -0.00226767
0.0124722 0.0234326 -0.00113384
Vibration 3
0.0062361 -0.00888171 0.0126612
0.0062361 -0.00680301 0.0160627
0.0041574 -0.00548021 0.013795
0.00226767 -0.00642507 0.0149288
0.00226767 -0.00850377 0.00699199
0.0041574 -0.0096376 0.00434637
-0.0119053 -0.00453534 0.0151178
0.00434637 -0.0111494 -0.00850377
0.00453534 -0.0120942 -0.0202201
0.00472431 -0.00812582 0.013984
0.00982658 -0.0145509 0.0222988
0.000188973 -0.00888171 0.0170075
-0.0153068 0.00359048 0.00264562
-0.0173855 0.00774788 -0.0020787
-0.00680301 0.00132281 0.00396842
-0.027779 0.0107714 -0.00510226
0.00434637 0.00113384 0.00113384
0.0192752 0.0241885 -0.00566918
0.0194642 0.041196 -0.0219208
0.00472431 0.0351489 -0.0309915
-0.0102045 0.00812582 -0.0241885
-0.0103935 -0.00888171 -0.00812582
0.00491329 0.0570697 -0.048566
-0.0495108 0.0311805 -0.0296687
-0.0120942 -0.0062361 0.00377945
0 -0.00472431 0.0198421
0.0096376 -0.00850377 0.013606
0.00925966 -0.0117163 0.00151178
-0.000566918 -0.0096376 -0.00226767
0.0183303 -0.0105825 0.0183303
0.0264562 -0.0160627 0.0100155
0.0258892 -0.0192752 -0.0020787
0.0173855 -0.0170075 -0.00661404
-0.00264562 -0.0113384 -0.0132281
0.000566918 -0.00170075 0.0323143
-0.0215429 -0.00585815 -0.00264562
0.00774788 -0.00585815 0.0190862
-0.00774788 0.00226767 0.0359048
0.020976 -0.0238105 0.0321253
0.00359048 -0.0132281 0.0224877
-0.0270231 0.0160627 -0.0107714
-0.00831479 0.00453534 0.000377945
0.0308025 0.0298577 0.00151178
0.0311805 0.0602823 -0.0272121
-0.0217318 0.00151178 -0.0315584
-0.0219208 -0.0294797 -0.00302356
0.00075589 0.0576366 -0.0468652
-0.00907068 0.0714316 -0.0529123
0.0232436 0.0595264 -0.0608492
-0.0583925 0.0366607 -0.0362827
-0.0328812 0.0451645 -0.0459203
-0.0733214 0.0262672 -0.0243775
0.0185193 -0.00831479 0.0279679
0.0332592 -0.0179524 0.0134171
0.0323143 -0.0238105 -0.00850377
0.0168186 -0.0194642 -0.0162516
-0.0194642 -0.00774788 -0.0109604
Vibration 4
0.0102045 -0.0119053 -0.0141729
0.0102045 -0.0109604 -0.0175745
0.00925966 -0.0102045 -0.0190862
0.00812582 -0.0105825 -0.0213539
0.00831479 -0.0117163 -0.0151178
0.00944863 -0.0122832 -0.0153068
0.0154958 -0.0187083 -0.0107714
0.00925966 -0.0130391 -0.0164406
0.00944863 -0.0132281 -0.0200311
0.0062361 -0.00982658 -0.00377945
-0.00604712 -0.0175745 0
-0.0192752 -0.0107714 0.00680301
-0.0200311 0.00453534 0.0100155
-0.00472431 0.0103935 0.00982658
0.00869274 0.00283459 0.00321253
-0.0377945 0.0124722 0.013795
0.00925966 -0.00472431 -0.00736993
-0.00396842 -0.0115273 -0.000188973
-0.00434637 0.00566918 0.0166296
0.00907068 0.0291018 0.0260782
0.0226767 0.0317474 0.0187083
0.0226767 0.0147399 0.00188973
0.00869274 0.0529123 0.0449755
-0.0444086 0.0340151 0.0120942
0.0154958 -0.0217318 0.00075589
0.00585815 -0.00888171 -0.0192752
-0.00585815 -0.000188973 -0.00982658
-0.00548021 -0.00113384 0.00245664
0.0062361 -0.0134171 0.00226767
-0.0158737 0.0109604 -0.0113384
-0.0255113 0.0215429 0.000188973
-0.0251334 0.020787 0.0126612
-0.0151178 0.00888171 0.013795
0.00812582 -0.0171965 0.013984
0.00548021 -0.00566918 -0.0330702
0.0226767 -0.0323143 0.0109604
0.0107714 -0.0105825 -0.0168186
0.013984 -0.013984 -0.0360938
-0.00585815 -0.0289128 -0.00321253
-0.0296687 -0.0162516 0.00888171
-0.00321253 0.020787 0.0143619
0.020409 0.0075589 0.00264562
-0.0145509 -0.0285349 -0.00736993
-0.0149288 0.00170075 0.0224877
0.0330702 0.048188 0.0258892
0.0332592 0.0185193 -0.00377945
-0.0128501 0.0582036 0.0514005
0.0192752 0.061983 0.0510226
0.0190862 0.0587705 0.048566
-0.0616051 0.0393063 0.0124722
-0.0306136 0.048188 0.0105825
-0.0472432 0.0300466 0.0124722
-0.0160627 0.0117163 -0.0213539
-0.0332592 0.0306136 -0.000566918
-0.0325033 0.0292908 0.0219208
-0.0147399 0.00774788 0.0238105
0.020976 -0.0321253 0.0179524
Vibration 5
0.00396842 0.00226767 0.0109604
0.00434637 0.00604712 0.0187083
0.00245664 0.00699199 0.00812582
0.00075589 0.00585815 -0.000566918
0.00075589 0.00302356 0.00132281
0.00245664 0.00188973 -0.00113384
0.00510226 0.00680301 -0.00585815
0.00283459 0.00302356 -0.0213539
0.00321253 0.00510226 -0.0427078
0.00869274 0 0.0132281
0.0491329 -0.0221098 0.0491329
0.0536682 -0.0243775 0.0478101
0.0145509 -0.00434637 0.00850377
-0.0253223 0.0162516 -0.0251334
-0.0266451 0.0168186 -0.0213539
0.020976 -0.0075589 0.00907068
0.00245664 0.00491329 0.00510226
0.00529123 0.000566918 0.00321253
0.00548021 -0.013984 -0.00113384
0.00264562 -0.0241885 -0.00359048
-0.000377945 -0.0153068 -0.00132281
-0.000377945 -0.000566918 0.00302356
0.00283459 -0.0455424 -0.00869274
-0.0245664 0.0190862 -0.0487549
0.00510226 0.00321253 0.00302356
-0.00245664 0.0062361 -0.00869274
-0.0120942 0.00548021 -0.00453534
-0.0119053 0.00453534 0.00510226
-0.0020787 0.00170075 0.00831479
-0.020787 0.00812582 -0.00888171
-0.0291018 0.0096376 -0.00264562
-0.0287238 0.00850377 0.00736993
-0.0202201 0.00566918 0.0113384
-0.000566918 -0.00113384 0.0179524
-0.00245664 0.00793685 -0.0187083
0.0105825 0.00170075 0.0075589
0.00680301 0.00736993 0.0313695
0.0041574 0.00925966 -0.0219208
0.0774788 -0.0372276 0.0763449
0.0861715 -0.0410071 0.075589
-0.0544241 0.0309915 -0.0534792
-0.0561249 0.0306136 -0.0449755
0.00774788 0.00736993 0.00491329
0.0075589 -0.0183303 -0.00264562
-0.00264562 -0.020976 -0.00302356
-0.00264562 0.00529123 0.00472431
0.0168186 -0.0517785 -0.00944863
0.00132281 -0.0512116 -0.0102045
-0.0096376 -0.0517785 -0.0107714
-0.00925966 0.0119053 -0.0425188
-0.00982658 0.020976 -0.11036
-0.0846597 0.0425188 -0.0323143
-0.020976 0.00925966 -0.0170075
-0.0355268 0.0117163 -0.00566918
-0.0351489 0.00982658 0.0120942
-0.0198421 0.00453534 0.0194642
0.00944863 -0.000188973 0.013984
Vibration 6
-0.00075589 0 -0.00113384
-0.00075589 -0.000377945 -0.000188973
-0.000377945 -0.000566918 0.000188973
0 -0.000377945 -0.000566918
0 0 -0.00075589
-0.000377945 0.000188973 -0.00151178
0.00132281 -0.000377945 -0.00132281
-0.000377945 0.000566918 -0.00264562
-0.000377945 0.000944863 -0.00396842
-0.00113384 0.000188973 -0.000944863
-0.00188973 0.000377945 -0.00132281
-0.00151178 0 -0.000377945
-0.000188973 -0.000377945 0.00113384
0.000188973 0 0.000944863
-0.000377945 0.000188973 -0.000188973
0.000566918 -0.000944863 0.00245664
-0.000377945 -0.000188973 0.00151178
-0.00132281 0.00604712 0.00226767
-0.000944863 0.0103935 0.00340151
-0.000377945 0.00944863 0.0041574
0 0.000188973 0.00283459
0.000377945 -0.00434637 0.00151178
-0.000188973 -0.00812582 -0.00075589
0.00340151 -0.00264562 0.00585815
0.00151178 0 -0.000566918
0.000566918 -0.000377945 -0.00151178
0 -0.000566918 -0.00113384
0 0 -0.000566918
0.000566918 0.000377945 -0.000188973
-0.000377945 -0.00113384 -0.00170075
-0.00075589 -0.000944863 -0.00132281
-0.00075589 -0.000188973 -0.000566918
-0.000377945 0.000377945 -0.000188973
0.00075589 0.00075589 0.000566918
0.000377945 -0.000944863 -0.00264562
0.0020787 0 0
-0.00113384 -0.000566918 0.000377945
0.00170075 -0.000377945 -0.00340151
-0.00283459 0.000566918 -0.00226767
-0.0020787 0 -0.000566918
0.00075589 -0.000188973 0.00170075
0 0.000566918 -0.000377945
-0.00170075 0.00831479 0.0020787
-0.0020787 0.013606 0.00434637
0.00113384 -0.00396842 0.00321253
0.00075589 -0.0105825 0.00075589
0.027401 -0.371331 0.445975
-0.00982658 0.537438 0.0667073
-0.0175745 -0.246231 -0.529312
0.00434637 -0.00377945 0.00736993
0.00132281 -0.00453534 0.00718096
0.00642507 -0.00132281 0.00510226
-0.000377945 -0.00170075 -0.00226767
-0.000944863 -0.00132281 -0.00170075
-0.000944863 0 -0.000377945
-0.000188973 0.00075589 0.000377945
0.0020787 0.000377945 0.000377945
Vibration 7
-0.0222988 0.00321253 -0.00340151
-0.0215429 -0.0075589 -0.000377945
-0.0119053 -0.0141729 0.000944863
-0.00245664 -0.00831479 0.00302356
-0.00170075 0.00302356 0.0062361
-0.0117163 0.00888171 0.000944863
0.0238105 -0.00850377 -0.000944863
-0.0107714 0.0239995 -0.00264562
-0.0103935 0.0385504 -0.00661404
-0.0257003 0.00529123 -0.0103935
-0.000377945 -0.0041574 0.00736993
0.013984 -0.0120942 0.0113384
0.000566918 -0.0113384 -0.00340151
-0.0325033 0.0020787 -0.0281569
-0.0449755 0.0096376 -0.0309915
0.0249444 -0.0249444 0.00850377
-0.0119053 -0.0179524 -0.000377945
-0.0107714 -0.0181414 -0.00113384
-0.0107714 0.00642507 -0.00113384
-0.0120942 0.0309915 -0.000377945
-0.0132281 0.0202201 -0.000377945
-0.0132281 -0.00453534 -0.000566918
-0.0124722 0.0716206 0.00075589
0.0270231 -0.0393063 0.0062361
0.0245664 0.00264562 0.00642507
0.0113384 -0.013984 -0.00245664
0.00982658 -0.0119053 -0.00075589
0.0103935 0.0020787 0.00718096
0.0120942 0.0102045 0.0117163
0.00850377 -0.0249444 -0.00718096
0.0075589 -0.0226767 -0.00548021
0.00831479 -0.0075589 0.00264562
0.00982658 0.00529123 0.00907068
0.013984 0.0217318 0.0188973
0.0100155 -0.0247554 -0.0102045
0.0357158 0.0100155 0.0102045
-0.0287238 -0.0117163 0.000188973
0.0160627 -0.0279679 -0.0126612
0.0102045 -0.00604712 0.0187083
0.0362827 -0.0202201 0.0270231
-0.0474321 0.0062361 -0.0436527
-0.068975 0.0177634 -0.0472432
-0.00982658 -0.0340151 -0.00170075
-0.0096376 0.00907068 -0.00151178
-0.0141729 0.0340151 0
-0.0145509 -0.0096376 -0.000188973
-0.0357158 0.08277 0.00075589
-0.0153068 0.0837149 0.00113384
0.013795 0.082959 0.00151178
0.0582036 -0.0576366 0.0268341
0.00774788 -0.0653845 -0.0183303
0.0202201 -0.00680301 0.0103935
0.00793685 -0.0366607 -0.0134171
0.0062361 -0.0332592 -0.0107714
0.00774788 -0.00566918 0.00396842
0.0103935 0.0168186 0.0151178
0.0334482 0.0194642 0.0168186
Vibration 8
-0.00699199 -0.00548021 0.00774788
-0.0062361 -0.00529123 -0.00907068
-0.00510226 -0.00642507 -0.0185193
-0.00377945 -0.00548021 -0.0258892
-0.00359048 -0.00434637 -0.0179524
-0.00491329 -0.00434637 0.0141729
-0.00585815 -0.013606 -0.0130391
-0.00566918 0.000377945 0.0725655
-0.00680301 0.00510226 0.136249
-0.00188973 -0.00869274 0.0145509
0.0188973 -0.0168186 0.0292908
0.0258892 -0.020409 0.027401
0.00812582 -0.0158737 0.00831479
-0.0105825 -0.0102045 -0.00377945
-0.0141729 -0.00812582 0.000944863
0.0134171 -0.0177634 0.00472431
-0.00529123 -0.00736993 -0.013606
-0.0128501 -0.00283459 -0.00869274
-0.0130391 0.00302356 0.000566918
-0.00548021 0.0041574 0.00510226
0.00226767 -0.00359048 0.000188973
0.00226767 -0.00907068 -0.00907068
-0.00585815 0.013606 0.0156847
-0.0241885 0.00170075 -0.0434637
-0.00566918 -0.00925966 -0.020409
-0.00075589 -0.00831479 -0.0149288
0.00831479 0.0062361 -0.0119053
0.00812582 0.00604712 -0.0198421
-0.000566918 -0.0041574 -0.0289128
0.0168186 0.0296687 0.00359048
0.0251334 0.0561249 0.0107714
0.0247554 0.0563138 0.00245664
0.0164406 0.0302356 -0.013984
-0.00188973 -0.00113384 -0.0372276
-0.000566918 -0.0107714 -0.00812582
-0.0117163 -0.0119053 -0.0230547
-0.00604712 -0.00529123 -0.0100155
-0.00548021 -0.0162516 -0.00548021
0.0298577 -0.0198421 0.0406291
0.0434637 -0.0260782 0.0389284
-0.0221098 -0.00793685 -0.0158737
-0.027401 -0.00661404 -0.00510226
-0.0188973 -0.00321253 -0.0122832
-0.0190862 0.00736993 0.00434637
0.00831479 -0.00434637 0.00377945
0.00831479 -0.013984 -0.0128501
-0.0153068 0.00888171 0.027779
0.000188973 0.0279679 0.0202201
-0.00283459 0.0115273 0.0075589
-0.0179524 0.0020787 -0.0489439
-0.00831479 0.00944863 -0.0833369
-0.0710537 0.00736993 -0.0315584
0.0170075 0.0292908 0.0111494
0.0315584 0.0771008 0.0236216
0.0311805 0.0776677 0.00869274
0.0162516 0.0311805 -0.020787
-0.0103935 -0.0100155 -0.0304246
Vibration 9
-0.00434637 -0.00453534 0.0425188
-0.00472431 -0.00774788 0.0634948
-0.00321253 -0.00888171 0.034393
-0.00170075 -0.0075589 -0.000944863
-0.00188973 -0.00377945 -0.00377945
-0.00302356 -0.00377945 0.0100155
0.0102045 -0.00132281 -0.0213539
-0.00283459 -0.00907068 -0.0171965
-0.00245664 -0.0170075 -0.0451645
-0.00453534 -0.00472431 0.0359048
-0.0111494 0.0158737 0.0126612
-0.0117163 0.0179524 -0.00850377
-0.00283459 -0.00264562 -0.00359048
0.00661404 -0.0249444 0.020976
0.0041574 -0.0234326 0.0391173
-0.00453534 0.0020787 -0.0294797
-0.00321253 -0.0109604 0.0262672
0.0102045 -0.0107714 0.0183303
0.0105825 -0.00377945 0.00264562
-0.00321253 0.00245664 -0.00472431
-0.0168186 -0.00283459 0.00245664
-0.0166296 -0.00925966 0.0181414
-0.00302356 0.0164406 -0.0224877
0.0120942 -0.0262672 -0.0160627
0.0105825 0.00359048 -0.0177634
0.00226767 -0.0128501 -0.0196532
0.000377945 -0.00793685 -0.0166296
0.000944863 0.000566918 -0.0111494
0.00302356 -0.00340151 -0.0124722
-0.000377945 0.0107714 -0.00907068
-0.000188973 0.0438416 0.00680301
0.000188973 0.054991 0.013606
0.00075589 0.0308025 0.00359048
0.0041574 0.00113384 -0.0075589
0.00188973 -0.0173855 -0.0268341
0.0154958 0.0181414 -0.0222988
-0.00699199 -0.00888171 0.0950532
0.00774788 -0.0120942 -0.0300466
-0.0164406 0.0317474 0.0113384
-0.0190862 0.034771 -0.0279679
0.0145509 -0.0421409 0.0249444
0.00793685 -0.0370386 0.0532903
0.020976 -0.0143619 0.0245664
0.0213539 -0.0020787 -0.00321253
-0.027401 -0.00075589 -0.00359048
-0.02759 -0.0115273 0.0241885
-0.00321253 0.0213539 -0.0285349
-0.0160627 0.0190862 -0.0281569
0.0111494 0.020976 -0.0258892
0.00680301 -0.0141729 -0.0419519
0.00642507 -0.0232436 0.0243775
0.0340151 -0.0602823 -0.0241885
-0.00075589 0.00321253 -0.013984
-0.000566918 0.0625499 0.0145509
0.000377945 0.0833369 0.027401
0.00113384 0.0383614 0.00850377
0.0145509 0.0198421 -0.0177634
Vibration 10
0.0124722 -0.00699199 0.0124722
0.0128501 -0.00245664 0.0173855
0.0111494 -0.000566918 0.0103935
0.00869274 -0.00170075 -0.000944863
0.00869274 -0.00699199 -0.00113384
0.0107714 -0.0075589 0.0075589
-0.00661404 0.00132281 -0.00434637
0.0107714 -0.00377945 0.0149288
0.0105825 0.00188973 0.0255113
0.00491329 -0.00226767 0.00529123
0.0222988 -0.0158737 0.0245664
0.00151178 -0.00302356 0.00661404
-0.0349599 0.0196532 -0.0283459
-0.05518 0.0336371 -0.0487549
-0.0340151 0.020598 -0.0313695
-0.0525344 0.0325033 -0.0489439
0.0117163 0.00359048 0.00907068
0.0166296 0.00529123 0.00642507
0.0168186 0.00302356 0.00132281
0.0130391 -0.00075589 -0.00113384
0.00831479 0.00188973 0.00170075
0.00831479 0.00434637 0.00699199
0.0132281 -0.00888171 -0.0075589
0.0444086 -0.0381725 0.0680301
-0.00699199 -0.00699199 -0.00642507
-0.000566918 0.00359048 -0.00359048
-0.00302356 0.00188973 -0.00340151
-0.00340151 -0.00982658 -0.00642507
-0.000377945 -0.0143619 -0.00774788
-0.00548021 0.0175745 0.00151178
-0.00812582 0.0190862 0.0041574
-0.00888171 0.00340151 0
-0.00661404 -0.0117163 -0.00510226
-0.00170075 -0.0224877 -0.00925966
0.000188973 0.0115273 -0.0020787
-0.0147399 -0.013795 -0.00831479
0.0154958 -0.00075589 0.0257003
-0.00151178 0.0126612 -0.00151178
0.0532903 -0.0362827 0.0532903
0.0154958 -0.0122832 0.020598
-0.0884392 0.0572587 -0.0797464
-0.0489439 0.0289128 -0.0440306
0.0202201 0.00736993 0.00869274
0.0198421 0.00359048 -0.000377945
0.00491329 0.00132281 -0.000377945
0.00529123 0.00566918 0.00869274
0.020598 -0.00944863 -0.0113384
0.0096376 -0.0141729 -0.00982658
0.0096376 -0.0102045 -0.00680301
0.0616051 -0.054991 0.0956201
-0.0153068 -0.0833369 0.147777
0.15458 -0.0266451 0.0423299
-0.00510226 0.0289128 0.00377945
-0.0096376 0.0325033 0.00888171
-0.0107714 0.00340151 0.00132281
-0.00699199 -0.0232436 -0.00699199
-0.0134171 -0.0222988 -0.0126612
Vibration 11
0.00812582 -0.0147399 -0.0292908
0.00812582 -0.0103935 -0.0410071
0.00491329 -0.00850377 -0.00661404
0.00245664 -0.00888171 0.0302356
0.00170075 -0.0111494 0.0309915
0.00680301 -0.0149288 0.00491329
-0.00188973 0.0262672 -0.00642507
0.00642507 -0.0217318 0.00359048
0.0062361 -0.0313695 -0.00113384
0.00661404 -0.0143619 -0.0338261
0.00132281 -0.0281569 -0.0217318
-0.00377945 -0.027401 -0.00585815
-0.00529123 -0.0122832 -0.00359048
-0.00283459 0.00340151 -0.0175745
0.00396842 -0.00075589 -0.0317474
-0.0102045 -0.0134171 0.0188973
0.00548021 -0.00888171 -0.00642507
0.00321253 -0.00982658 -0.00491329
0.00302356 -0.00699199 -0.00132281
0.0062361 -0.0020787 0.00075589
0.00888171 -0.00604712 -0.000944863
0.00850377 -0.00982658 -0.00453534
0.00604712 0.00944863 0.00566918
-0.0160627 0.0109604 0.020409
-0.000944863 0.0478101 -0.0171965
-0.00340151 -0.0164406 0.0134171
-0.00510226 -0.0226767 0.00812582
-0.00566918 -0.0268341 0.00831479
-0.00188973 -0.0156847 0.0177634
-0.00718096 0.00566918 0.0200311
-0.00982658 0.0340151 0.0349599
-0.0096376 0.0264562 0.034582
-0.00869274 -0.00812582 0.020598
-0.00170075 -0.0177634 0.0194642
-0.00226767 -0.0173855 0.0175745
0.0041574 0.164595 -0.0748331
0.0111494 -0.00888171 -0.0742662
-0.00359048 0.0120942 0.0153068
0.00170075 -0.0410071 -0.0251334
-0.00548021 -0.0379835 0.00434637
-0.00529123 0.0179524 -0.0162516
0.00793685 0.00774788 -0.0381725
0.00113384 -0.0122832 -0.00642507
0.00075589 -0.00718096 0
0.0109604 -0.00510226 0.000377945
0.0111494 -0.0120942 -0.0062361
-0.00264562 0.0103935 0.00982658
0.00831479 0.0164406 0.00774788
0.0122832 0.0113384 0.00396842
-0.0171965 0.00151178 0.0444086
-0.0120942 0.0096376 -0.0041574
-0.0230547 0.0377945 0.0243775
-0.00699199 0.0111494 0.0190862
-0.0105825 0.0636838 0.0468652
-0.0107714 0.0496998 0.0464873
-0.00869274 -0.013606 0.0213539
0.00359048 0.148532 -0.0589595
Vibration 12
-0.0020787 0.000944863 0.00359048
-0.00170075 -0.00359048 0.0171965
0.00604712 -0.00699199 0.0160627
0.0132281 -0.00245664 0.00226767
0.013984 -0.00359048 0.0020787
0.00472431 0.00302356 0.0020787
0.00132281 0.00510226 -0.0020787
0.00566918 0.0258892 0.000377945
0.00642507 0.0557469 -0.000566918
-0.0130391 0.0075589 -0.00869274
-0.0258892 0.0164406 -0.0217318
-0.020976 0.0132281 -0.0168186
-0.00188973 0.00132281 0.00151178
-0.00566918 0.00340151 -0.00188973
-0.0102045 0.0062361 -0.00585815
0.027779 -0.0181414 0.0315584
0.0062361 -0.0166296 0.0166296
0.0143619 -0.020598 0.0115273
0.0149288 -0.0158737 0.00302356
0.00774788 -0.00661404 -0.000566918
-0.000377945 -0.0177634 0.00321253
-0.000188973 -0.0221098 0.0120942
0.00774788 0.0219208 -0.0107714
-0.00642507 0.00226767 -0.0115273
0.000188973 -0.00453534 -0.0062361
0.00736993 0.0117163 -0.0020787
0.00075589 0.0143619 0.00188973
-0.000944863 -0.0251334 -0.00982658
0.0075589 -0.0190862 -0.00434637
-0.00718096 0.0653845 0.0185193
-0.0166296 0.0464873 0.0154958
-0.0200311 -0.0311805 -0.0109604
-0.0124722 -0.0646286 -0.020976
0.00585815 -0.0239995 -0.00132281
0.00604712 0.013795 -0.00548021
-0.0122832 -0.0132281 -0.0113384
-0.00661404 -0.00661404 0.0249444
0.00736993 -0.00340151 -0.00453534
-0.0379835 0.0245664 -0.0326923
-0.0283459 0.0177634 -0.0238105
-0.00151178 0.000188973 0.00188973
-0.00907068 0.00604712 -0.00529123
0.020787 -0.0251334 0.0149288
0.020787 -0.0162516 -0.000377945
-0.00661404 -0.0198421 -0.000566918
-0.00604712 -0.027401 0.0149288
-0.00434637 0.02759 -0.0105825
-0.00188973 0.0349599 -0.0134171
0.0298577 0.0285349 -0.0171965
0.0283459 -0.0221098 0.0213539
-0.00812582 -0.0168186 -0.0884392
-0.0600933 0.0580146 0.00604712
-0.00548021 0.116218 0.0319364
-0.020976 0.0890061 0.0308025
-0.02759 -0.0608492 -0.020598
-0.0143619 -0.114328 -0.0332592
-0.0111494 -0.0264562 -0.020409
Vibration 13
0.00642507 -0.00302356 -0.0117163
0.00642507 -0.00359048 0.0170075
0.00642507 -0.00283459 0.0311805
0.00340151 -0.0041574 0.0096376
0.00321253 -0.00396842 -0.00472431
0.00472431 -0.00396842 -0.00944863
-0.0062361 0.0020787 -0.00793685
0.00434637 -0.00377945 0.00359048
0.00396842 -0.00321253 0.0266451
-0.00245664 0.0020787 -0.0289128
-0.0166296 0.00283459 -0.0338261
-0.0179524 0.00188973 -0.0222988
-0.00359048 0.00188973 -0.00642507
-0.0075589 0.013795 -0.0192752
-0.0041574 0.0111494 -0.027779
0.0194642 -0.0168186 0.0374166
0.00699199 0.00566918 0.0379835
0.0238105 0.0102045 0.0283459
0.0251334 0.0102045 0.00888171
0.00944863 0.00529123 -0.000566918
-0.00774788 0.013606 0.00944863
-0.00699199 0.0132281 0.0292908
0.0102045 -0.0141729 -0.0285349
-0.00907068 0.0168186 0.00850377
-0.00642507 -0.0062361 -0.00510226
-0.00377945 -0.00604712 -0.00453534
-0.0041574 -0.0179524 -0.0105825
-0.00321253 0.00491329 -0.00151178
-0.00302356 -0.00529123 -0.00699199
-0.00510226 -0.0417629 -0.0215429
-0.00359048 -0.0179524 -0.0109604
-0.00132281 0.0332592 0.0115273
-0.00132281 0.0400622 0.0145509
-0.00396842 -0.0147399 -0.0100155
-0.00245664 0.00283459 -0.00283459
-0.00982658 -0.0175745 -0.00113384
0.00529123 -0.00396842 0.0257003
-0.00321253 0.0190862 -0.00396842
-0.0247554 0.00170075 -0.0430858
-0.0255113 -0.000377945 -0.0224877
-0.00925966 0.0222988 -0.0187083
-0.000188973 0.0153068 -0.0300466
0.0374166 0.0120942 0.0364717
0.0377945 0.0113384 0.00170075
-0.020976 0.0177634 0.00188973
-0.0198421 0.0170075 0.0366607
0.0334482 -0.0154958 -0.041196
-0.00699199 -0.0268341 -0.0379835
0.00491329 -0.0171965 -0.0302356
0.0313695 -0.0211649 0.0704868
-0.0160627 -0.0119053 -0.0876833
-0.0591484 0.104313 0.02759
-0.0062361 -0.0735103 -0.0359048
-0.0041574 -0.0355268 -0.0187083
0.000566918 0.0646286 0.0257003
0 0.0695419 0.02759
-0.00888171 -0.0221098 -0.00188973
Vibration 14
0.00321253 0.0062361 -0.00245664
0.00302356 0.0041574 -0.0041574
0.00680301 0.00151178 -0.00151178
0.00680301 0.00245664 0.00377945
0.00661404 0.0020787 -0.00170075
0.00340151 0.00510226 -0.00283459
-0.020409 0.00718096 0.00170075
0.0041574 0.0228657 -0.0020787
0.00472431 0.0512116 -0.000188973
0.00888171 0.00491329 0.00113384
0.0154958 0.00396842 0.00453534
0.0168186 0.00377945 0.00491329
0.0132281 0.00736993 0.00188973
0.0166296 0.00340151 0.00699199
0.0126612 0.00529123 0.00472431
-0.00151178 0.0170075 -0.0117163
0.00699199 -0.0226767 -0.00359048
0.00699199 -0.0434637 -0.00491329
0.00699199 -0.0453534 -0.00340151
0.00869274 -0.0222988 -0.00075589
0.00925966 -0.0478101 -0.00264562
0.00888171 -0.0459203 -0.00377945
0.00831479 0.0527234 0.00585815
0.00888171 0.0147399 0.00264562
-0.020598 0.00113384 -0.00151178
-0.00925966 0.00321253 0.00529123
-0.00850377 -0.00661404 -0.00170075
-0.00812582 0.0096376 0.00434637
-0.00793685 -0.00283459 -0.00283459
-0.0124722 -0.0334482 -0.0153068
-0.0141729 -0.0230547 -0.0096376
-0.0119053 0.020976 0.0107714
-0.0096376 0.0336371 0.0173855
-0.0107714 -0.020976 -0.0113384
-0.00718096 0.0134171 0.0179524
-0.0319364 -0.00151178 -0.00718096
0.00075589 0.00245664 -0.00642507
-0.0171965 0.0245664 0.0211649
0.0173855 0.0041574 0.00680301
0.0179524 0.00245664 0.00661404
0.020787 0 0.0105825
0.0126612 0.00661404 0.00321253
0.00661404 -0.0517785 -0.00566918
0.00585815 -0.0544241 -0.00321253
0.00982658 -0.0591484 -0.00321253
0.0105825 -0.0570697 -0.00548021
-0.0391173 0.0653845 0.0188973
0.00566918 0.0922186 0.00982658
0.0580146 0.069164 -0.00548021
-0.0255113 0.0389284 -0.0302356
0.0221098 0.0400622 0.0534792
0.034393 -0.0351489 -0.0075589
-0.0134171 -0.0589595 -0.0296687
-0.0158737 -0.0457314 -0.020409
-0.0117163 0.041385 0.020409
-0.00850377 0.0568808 0.0306136
-0.0296687 -0.0128501 -0.0130391
Vibration 15
-0.00491329 -0.0119053 -0.0062361
-0.00188973 -0.0100155 -0.00831479
0.0020787 -0.0124722 -0.00170075
0.00283459 -0.0111494 0.00321253
0.00529123 -0.0120942 0.00113384
0 -0.0105825 -0.00283459
-0.0020787 -0.0062361 -0.00188973
0.00264562 0.0445975 -0.00491329
0.00491329 0.137194 -0.00925966
-0.000566918 -0.0164406 -0.000944863
-0.00113384 -0.0217318 0.00302356
-0.000188973 -0.0228657 0.0062361
0.000566918 -0.0236216 0.00718096
0.0149288 -0.0281569 0.0166296
0.00774788 -0.0224877 0.00680301
-0.0200311 -0.0107714 -0.0128501
0.00264562 0.0117163 0.00075589
0.00377945 0.034582 0.00188973
0.00377945 0.041574 0.0020787
0.00396842 0.0213539 0.000944863
0.00359048 0.0434637 0.00245664
0.00359048 0.0362827 0.00245664
0.00453534 -0.0470542 -0.00396842
-0.0122832 -0.0156847 -0.00321253
-0.00188973 -0.00585815 -0.00472431
0.000188973 -0.0115273 0.000944863
-0.000377945 -0.0162516 -0.00151178
-0.000188973 -0.0128501 0.000566918
0.00226767 -0.0160627 -0.000377945
-0.0020787 -0.0153068 -0.00188973
-0.00340151 -0.00075589 0.00585815
-0.00283459 0.0105825 0.0126612