[Molden Format]
[FREQ]
-48.2
-24.5
-11.2
11.4
28.3
35.9
41.4
58.2
61.9
87.6
90.5
95.1
105.9
115.5
117.3
147.2
157.3
177.9
184.8
206.3
227.8
233.6
242.3
250.3
271.9
287.1
295.4
301.7
316.0
325.0
335.9
342.6
362.5
377.0
390.1
417.5
432.1
483.0
486.4
493.4
501.8
508.8
520.5
542.4
549.7
571.5
580.9
586.7
589.3
605.4
613.1
620.5
628.9
642.2
662.2
677.4
690.3
697.3
713.1
740.7
782.4
797.1
816.3
829.7
830.7
833.0
851.5
859.2
866.5
870.5
884.1
891.4
926.8
937.6
941.0
974.0
980.2
999.7
1002.9
1009.0
1012.9
1016.7
1018.6
1025.5
1045.8
1067.4
1069.9
1079.7
1085.3
1089.2
1125.7
1127.9
1156.2
1161.3
1171.6
1176.2
1180.5
1189.7
1204.4
1215.8
1230.8
1241.1
1263.6
1264.9
1277.7
1282.9
1284.9
1289.8
1296.0
1301.7
1304.2
1314.0
1320.5
1331.6
1337.2
1349.1
1359.9
1367.8
1379.4
1383.5
1392.5
1408.5
1428.9
1441.3
1491.4
1507.7
1519.6
1527.2
1534.3
1539.4
1581.3
1583.9
1680.2
1686.1
1691.6
1708.2
1708.7
1722.1
1725.4
1748.0
1766.6
1877.0
1918.1
1961.2
2648.4
2653.8
2658.0
2675.0
2729.4
2740.1
2744.0
2747.2
2749.3
2749.3
2755.3
2756.0
2759.4
2765.8
2768.0
2772.3
2775.2
2779.7
2792.4
2794.6
2803.4
       
[FR-COORD]
C -0.112439 -2.94193 1.87839
C 2.61595 -2.94193 1.87839
C 3.97712 -0.746253 1.87839
N 2.68625 1.51669 2.2654
C 0.138706 1.65351 1.55411
C -1.31978 -0.6769 1.52085
N -0.679734 3.8849 0.863416
C -4.01605 -0.283459 0.989838
N -5.82451 -1.84759 1.25194
C -1.34284 -5.35775 2.25936
C -0.584492 -7.51034 0.898565
C -1.67203 -9.83829 1.35248
C -3.58462 -10.0309 3.19798
C -4.38284 -7.92287 4.57181
C -3.26601 -5.59359 4.0665
O -4.47015 -12.4044 3.45499
C 6.65958 -0.573721 1.14158
C 8.23864 -2.68625 0.970563
C 10.5108 -2.57494 -0.381347
C 11.2467 -0.339206 -1.56337
C 9.82091 1.85288 -1.14423
C 7.55985 1.72664 0.164595
C 13.3469 -0.200878 -3.4342
C -6.36082 -12.849 5.31599
C -3.03603 3.94934 -0.467896
C -4.34958 6.59174 -0.314072
C -3.50601 7.99033 -2.6065
C -2.23781 6.37896 -4.30404
C -2.31586 3.73807 -3.36579
C -3.68742 10.5483 -3.07043
C -2.49198 11.5184 -5.23076
C -1.14593 9.94166 -6.84553
C -1.00288 7.33081 -6.39351
O -1.89558 1.83908 -4.46372
O -5.77292 7.30152 1.26347
O -4.81011 2.1027 0.190106
H 3.55457 -4.7519 1.77823
H 3.62846 3.14847 2.58118
H 0.878534 -7.33592 -0.551989
H -1.10965 -11.5045 0.322954
H -5.8555 -8.05231 5.96983
H -3.8951 -3.91476 5.10717
H 7.68155 -4.48451 1.80582
H 11.6641 -4.26946 -0.590728
H 10.4725 3.63432 -1.93489
H 6.46324 3.4582 0.327112
H 14.6968 -1.76765 -3.35596
H 14.4428 1.55713 -3.26356
H 12.5145 -0.176311 -5.36002
H -6.68339 -14.8897 5.1495
H -8.09275 -11.8085 4.88003
H -5.65897 -12.3864 7.20439
H -4.70145 11.7847 -1.77955
H -2.61236 13.5342 -5.62798
H -0.178201 10.7387 -8.47618
H 0.0916517 6.104 -7.62826
H -7.61711 -1.395 0.837716

[FR-NORM-COORD]
Vibration 1
0.0020787 0.00226767 0.00850377
0.00151178 0.0020787 0.020976
0.00491329 0.000944863 0.00453534
0.00377945 0.0041574 -0.0226767
0.00151178 -0.000377945 -0.013795
0.00170075 0.000188973 -0.00377945
-0.000566918 -0.00113384 -0.0145509
0.00151178 -0.0020787 -0.00491329
0.00302356 -0.00377945 -0.0041574
0.00170075 0.00226767 0.00907068
0.00340151 0.00264562 0.00944863
0.00302356 0.00245664 0.00774788
0.00113384 0.0020787 0.00566918
-0.000377945 0.00188973 0.00529123
-0.000188973 0.0020787 0.00680301
0.000944863 0.0020787 0.00434637
0.0096376 -0.00774788 0.0175745
-0.0328812 -0.0334482 -0.0742662
-0.0377945 -0.027401 -0.0805023
-0.000377945 0.00264562 -0.000944863
0.05518 0.0179524 0.105636
0.0631168 0.0147399 0.120376
-0.0226767 0.020787 -0.0241885
0.000188973 0.00132281 0.00321253
-0.00340151 -0.00226767 -0.00888171
-0.00264562 -0.00188973 -0.00566918
-0.00340151 -0.000566918 -0.00510226
-0.00642507 -0.000377945 -0.00774788
-0.00982658 -0.00132281 -0.0103935
-0.000566918 0 -0.00226767
-0.00075589 0.000944863 -0.00188973
-0.00359048 0.000944863 -0.00434637
-0.00642507 0.000377945 -0.00736993
-0.0179524 -0.00132281 -0.013606
-0.000566918 -0.00245664 -0.00359048
-0.00113384 -0.00302356 -0.00491329
-0.000188973 -0.000377945 0.0489439
0.00188973 0.00907068 -0.0402512
0.00491329 0.00321253 0.0111494
0.0041574 0.00283459 0.00793685
-0.0020787 0.00151178 0.00340151
-0.00151178 0.0020787 0.00604712
-0.0653845 -0.0565028 -0.14532
-0.0731324 -0.0427078 -0.152123
0.0922186 0.0376055 0.180847
0.115651 0.0381725 0.219208
-0.0291018 0.0130391 -0.0633058
-0.0119053 0.0128501 -0.0154958
-0.0476211 0.0504557 -0.013606
0.00075589 0.00113384 0.00283459
0.000188973 0.00075589 0.00245664
-0.000944863 0.00132281 0.00359048
0.00188973 0 -0.000188973
0.00132281 0.00151178 0.000188973
-0.00359048 0.00151178 -0.00396842
-0.00850377 0.000377945 -0.00925966
0.00245664 -0.00548021 -0.00396842
Vibration 2
0.000944863 -0.00472431 0.000944863
0.000377945 -0.00680301 0.00396842
0.00113384 -0.00699199 0.0096376
0.00245664 -0.0075589 0.0183303
0.00321253 -0.00283459 0.0173855
0.00396842 -0.00302356 0.00075589
0.000377945 0.00245664 0.034771
0.00718096 -0.00321253 -0.013795
0.00359048 0.000944863 -0.0120942
-0.00377945 -0.00226767 0.000566918
-0.00680301 -0.00548021 0.0041574
-0.0119053 -0.00283459 0.00699199
-0.0134171 0.00359048 0.00604712
-0.0103935 0.00699199 0.00245664
-0.00566918 0.0041574 -0.000377945
-0.0187083 0.00585815 0.00888171
-0.000566918 -0.00793685 0.00359048
-0.00585815 -0.0107714 -0.0113384
-0.0122832 -0.0111494 -0.0221098
-0.013984 -0.00869274 -0.0188973
-0.00585815 -0.00661404 -0.00226767
0.00075589 -0.00604712 0.0096376
-0.0251334 -0.00888171 -0.0315584
-0.0181414 0.0119053 0.0107714
0.0188973 0.00132281 0.00151178
-0.00736993 -0.0122832 -0.00491329
-0.0249444 -0.00491329 -0.00661404
0.0126612 0.0147399 0.00377945
0.082581 0.0175745 0.0156847
-0.0736993 -0.00982658 -0.0164406
-0.0852266 0.00604712 -0.0154958
-0.0496998 0.0268341 -0.00642507
-0.000188973 0.0315584 0.00340151
0.223366 0.0315584 0.0447865
-0.0147399 -0.0251334 -0.00566918
0.0149288 -0.0102045 -0.0394953
-0.00075589 -0.00699199 -0.00132281
0.00359048 -0.0100155 0.0268341
-0.00548021 -0.0103935 0.00510226
-0.0145509 -0.00548021 0.00982658
-0.0115273 0.0120942 0.00151178
-0.00340151 0.00699199 -0.00359048
-0.00548021 -0.0126612 -0.0151178
-0.0168186 -0.0126612 -0.0336371
-0.00529123 -0.00510226 0.00170075
0.00642507 -0.00377945 0.0238105
-0.0224877 -0.00680301 -0.0368497
-0.0264562 -0.00718096 -0.041574
-0.0368497 -0.0134171 -0.0266451
-0.0222988 0.0122832 0.013795
-0.0164406 0.0147399 0.0107714
-0.0158737 0.0130391 0.00982658
-0.103179 -0.0257003 -0.0243775
-0.122832 0.00245664 -0.0222988
-0.0600933 0.0402512 -0.00604712
0.0283459 0.0476211 0.0122832
0.0062361 0.000944863 -0.0228657
Vibration 3
-0.00170075 -0.00831479 -0.0132281
-0.00170075 -0.00736993 -0.00661404
-0.00264562 -0.00680301 -0.0119053
-0.00434637 -0.00642507 -0.0215429
-0.00359048 -0.00925966 -0.0247554
-0.00151178 -0.0102045 -0.0266451
-0.00434637 -0.00907068 -0.0230547
0.000566918 -0.013795 -0.0396842
0.00264562 -0.0192752 -0.0565028
-0.00132281 -0.00661404 -0.00113384
0.00793685 -0.0171965 0.0202201
0.0126612 -0.0156847 0.0381725
0.0062361 -0.00359048 0.0328812
-0.00604712 0.0075589 0.00850377
-0.00888171 0.00548021 -0.00774788
0.0160627 -0.00472431 0.0566918
-0.000944863 -0.00736993 -0.00642507
0.00075589 -0.00680301 0.00302356
0.00434637 -0.00869274 0.00888171
0.00642507 -0.0109604 0.00585815
0.00340151 -0.0109604 -0.00396842
-0.000188973 -0.00925966 -0.0102045
0.0122832 -0.0134171 0.0122832
0.00642507 0.00888171 0.0498888
-0.0041574 -0.00566918 -0.0224877
-0.0105825 -0.00925966 -0.00340151
-0.00396842 0.0130391 0.0130391
0.000188973 0.0285349 0.00132281
-0.00434637 0.0192752 -0.0238105
-0.00245664 0.0173855 0.0364717
0.00321253 0.0372276 0.048566
0.00718096 0.0521564 0.0374166
0.00604712 0.047999 0.013606
-0.0117163 0.0304246 -0.0457314
-0.0211649 -0.0296687 -0.00377945
-0.000944863 -0.0130391 -0.0353379
-0.000377945 -0.00736993 0.00359048
-0.00604712 -0.00510226 -0.0228657
0.0122832 -0.0266451 0.0234326
0.0219208 -0.0245664 0.0576366
-0.0130391 0.0177634 0.0020787
-0.0168186 0.0134171 -0.0253223
-0.000566918 -0.00510226 0.00566918
0.00585815 -0.00850377 0.0160627
0.00434637 -0.0126612 -0.00699199
-0.00226767 -0.00982658 -0.0185193
0.0109604 -0.0141729 0.0171965
0.0126612 -0.013984 0.0147399
0.0181414 -0.013984 0.0096376
0.0258892 0.00321253 0.0810692
0.00075589 -0.0134171 0.0188973
-0.0128501 0.0457314 0.047999
-0.00566918 0.00529123 0.0455424
0.0041574 0.0410071 0.0668963
0.0113384 0.0672742 0.0472432
0.00925966 0.0597153 0.00491329
0.0041574 -0.0219208 -0.0653845
Vibration 4
-0.0103935 -0.00151178 -0.00170075
-0.0102045 0.00151178 -0.0062361
-0.0130391 0.00302356 0.00245664
-0.0153068 -0.000377945 0.0175745
-0.0143619 0 0.0143619
-0.0120942 -0.00151178 0.00453534
-0.0164406 0.00113384 0.0198421
-0.0117163 -0.0020787 0.00264562
-0.0122832 -0.00113384 0.00472431
-0.00718096 -0.00302356 -0.0020787
-0.00340151 -0.00321253 0.000188973
0.00340151 -0.00548021 0.00548021
0.00585815 -0.00736993 0.00793685
-0.000188973 -0.00661404 0.00321253
-0.00642507 -0.00472431 -0.00151178
0.0160627 -0.0102045 0.0164406
-0.0158737 0.00982658 -0.00642507
-0.013795 0.0126612 -0.020976
-0.020976 0.0200311 -0.0323143
-0.0306136 0.0245664 -0.0296687
-0.0309915 0.0215429 -0.0145509
-0.0238105 0.0143619 -0.00264562
-0.041574 0.0325033 -0.041385
0.0175745 -0.0117163 0.0175745
-0.00831479 -0.00302356 0.00434637
-0.0128501 -0.00453534 -0.0151178
0.0217318 -0.00453534 -0.00264562
0.0364717 -0.00793685 0.0113384
0.0170075 -0.0075589 0.0102045
0.0372276 -0.00340151 -0.00264562
0.0678412 -0.00604712 0.0130391
0.0822031 -0.0096376 0.0285349
0.0665184 -0.0107714 0.027779
0.0222988 -0.00982658 0.0162516
-0.0455424 -0.00831479 -0.0428968
-0.0102045 -0.00359048 -0.00359048
-0.00812582 0.00321253 -0.0185193
-0.0168186 -0.00132281 0.0264562
-0.00548021 -0.00188973 -0.00170075
0.0075589 -0.00585815 0.00850377
0.000566918 -0.00793685 0.00377945
-0.0103935 -0.00453534 -0.00396842
-0.00680301 0.00925966 -0.0234326
-0.0194642 0.0222988 -0.0432747
-0.0374166 0.0251334 -0.0117163
-0.0249444 0.0124722 0.00982658
-0.0381725 0.0349599 -0.0523454
-0.0436527 0.034204 -0.0438416
-0.0523454 0.0351489 -0.0366607
0.0302356 -0.0145509 0.0285349
0.0117163 -0.0245664 0.0103935
0.0130391 0.00283459 0.0156847
0.0255113 -0.000566918 -0.0145509
0.0806913 -0.00529123 0.0134171
0.106203 -0.0119053 0.0417629
0.0776677 -0.0134171 0.0404401
-0.0119053 -0.00151178 0.00264562
Vibration 5
-0.0221098 0.00529123 -0.0149288
-0.0217318 -0.000566918 -0.0113384
-0.0158737 -0.00453534 0.00264562
-0.0103935 -0.00283459 0.0100155
-0.00850377 0.0062361 0.00491329
-0.0154958 0.0102045 -0.00491329
-0.00075589 0.0102045 0.00888171
-0.0141729 0.020409 -0.00377945
-0.0192752 0.0253223 -0.00907068
-0.020598 0.00302356 -0.0245664
-0.00604712 0.00604712 -0.0219208
0.0190862 -0.00340151 -0.0105825
0.0268341 -0.0158737 -0.00359048
0.000566918 -0.0164406 -0.0183303
-0.0219208 -0.00718096 -0.027779
0.0684081 -0.0285349 0.0230547
-0.013984 -0.0113384 0.00850377
-0.020598 -0.0164406 0.00831479
-0.0196532 -0.0228657 0.0096376
-0.0122832 -0.0241885 0.0115273
-0.00434637 -0.0194642 0.013795
-0.00566918 -0.0132281 0.0124722
-0.0124722 -0.0308025 0.0107714
0.0791795 -0.0417629 0.0308025
0.00132281 0.0196532 0.00566918
0.0126612 0.0251334 0.0041574
0.00529123 0.0154958 -0.00453534
-0.000566918 0.00925966 -0.00264562
0.00302356 0.0128501 0.00661404
0.00434637 0.013984 -0.013606
-0.00321253 0.00566918 -0.0213539
-0.00925966 -0.000566918 -0.020409
-0.00793685 0.00113384 -0.0107714
0.00944863 0.00944863 0.0147399
0.0285349 0.0383614 0.0124722
-0.00642507 0.0262672 0.00472431
-0.0255113 -0.00226767 -0.0194642
-0.00642507 -0.00661404 0.0181414
-0.0115273 0.0151178 -0.0264562
0.0353379 -0.00188973 -0.00377945
-0.000188973 -0.0247554 -0.0198421
-0.0387394 -0.00907068 -0.034771
-0.0268341 -0.0151178 0.00699199
-0.0249444 -0.0262672 0.00869274
0.00245664 -0.020787 0.0164406
-0.000188973 -0.00982658 0.0141729
-0.0132281 -0.0311805 0.0154958
-0.0117163 -0.0308025 0.00472431
-0.0132281 -0.0366607 0.0109604
0.133793 -0.0536682 0.0712427
0.0525344 -0.0959981 0.00718096
0.0636838 0.013795 0.0228657
0.00925966 0.0190862 -0.0145509
-0.00434637 0.0041574 -0.0285349
-0.0151178 -0.00680301 -0.0270231
-0.0124722 -0.00377945 -0.00982658
-0.0177634 0.0326923 -0.00718096
Vibration 6
-0.00340151 -0.0158737 -0.0294797
-0.00245664 -0.0179524 -0.0410071
-0.00226767 -0.0185193 -0.0134171
-0.00283459 -0.0234326 0.0185193
0.00188973 -0.013984 0.00396842
-0.00113384 -0.0122832 -0.0153068
0.00831479 -0.00925966 0.0124722
0.000188973 -0.00566918 -0.0170075
-0.00113384 -0.00850377 -0.0432747
-0.00774788 -0.0120942 -0.0222988
-0.0153068 -0.0219208 -0.0107714
-0.0192752 -0.0170075 0.00604712
-0.0162516 -0.0020787 0.0105825
-0.0111494 0.00850377 -0.00245664
-0.00661404 0.00264562 -0.0185193
-0.0181414 0.000944863 0.0311805
-0.00264562 -0.00491329 -0.0115273
0.00831479 0.00453534 -0.0219208
0.0126612 0.0262672 -0.0130391
0.00585815 0.0387394 0.00642507
-0.00925966 0.02759 0.0134171
-0.013795 0.00585815 0.00321253
0.0162516 0.0665184 0.0200311
-0.0171965 0.0181414 0.0364717
0.00907068 0.000377945 0.0111494
0.0224877 0.00642507 0.0147399
0.0117163 -0.0020787 0.00548021
0.0020787 -0.00774788 0.00377945
0.00453534 -0.00472431 0.0107714
0.0111494 -0.00321253 -0.00132281
0.000188973 -0.0105825 -0.0107714
-0.0096376 -0.0164406 -0.0134171
-0.00869274 -0.0149288 -0.00604712
0.00188973 -0.00812582 0.0153068
0.0442196 0.0202201 0.0281569
0.00340151 0.00585815 0.0117163
-0.0041574 -0.0170075 -0.0716206
-0.00264562 -0.0281569 0.0427078
-0.0177634 -0.0338261 -0.0147399
-0.0241885 -0.0247554 0.0160627
-0.00982658 0.020976 0.000188973
-0.00151178 0.0100155 -0.027401
0.0145509 -0.00434637 -0.0366607
0.0221098 0.0336371 -0.0211649
-0.0170075 0.0362827 0.0266451
-0.0264562 -0.00226767 0.00661404
0.00982658 0.0597153 -0.00321253
0.0217318 0.0591484 0.0602823
0.0270231 0.106014 0.0158737
-0.0149288 0.0160627 0.0576366
-0.0181414 0.0117163 0.0255113
-0.0175745 0.0383614 0.0315584
0.0192752 0.00151178 0.000377945
-0.000566918 -0.0117163 -0.0162516
-0.0183303 -0.0219208 -0.0213539
-0.0164406 -0.0198421 -0.00812582
0.000566918 -0.00302356 -0.0440306
Vibration 7
-0.00453534 -0.00113384 -0.0198421
-0.00491329 -0.00377945 -0.0334482
-0.00283459 -0.00491329 -0.0268341
0 -0.00396842 -0.0226767
-0.00302356 -0.00075589 -0.00982658
-0.00472431 0.000566918 -0.00491329
-0.00774788 0.000377945 -0.00226767
-0.00869274 0.00434637 0.0188973
-0.0117163 0.0149288 0.0616051
-0.00661404 0.000566918 -0.0156847
-0.0393063 0.00661404 -0.0428968
-0.0419519 0.00850377 -0.0381725
-0.00642507 0.00434637 -0.0020787
0.0272121 -0.00113384 0.0258892
0.0245664 -0.00188973 0.0170075
-0.0111494 0.0062361 0.000566918
0 -0.00604712 -0.0175745
-0.00170075 -0.0075589 -0.0153068
0.00925966 -0.00472431 0.00321253
0.0224877 -0.000188973 0.0202201
0.0198421 -0.000944863 0.0154958
0.00869274 -0.00396842 -0.00434637
0.041574 0.00699199 0.0419519
0.0326923 0.000188973 0.0436527
-0.00718096 -0.00283459 -0.00396842
-0.0147399 -0.0062361 -0.00774788
-0.00718096 -0.0020787 -0.00226767
0.000566918 0.00113384 0.000566918
0.00132281 -0.000188973 -0.00226767
-0.0075589 -0.00170075 0.000566918
0.000566918 0.00245664 0.00699199
0.00869274 0.00585815 0.0103935
0.00869274 0.00529123 0.00718096
0.013795 0.00226767 -0.00151178
-0.0291018 -0.0141729 -0.0171965
-0.00680301 -0.00453534 -0.00680301
-0.00793685 -0.00472431 -0.0466762
0.00170075 -0.00585815 -0.0185193
-0.0638727 0.0103935 -0.0670853
-0.0712427 0.013606 -0.062361
0.0561249 -0.00491329 0.0559359
0.0472432 -0.00453534 0.0351489
-0.0107714 -0.0105825 -0.027779
0.00831479 -0.00566918 0.00472431
0.027779 0.00132281 0.0270231
0.00774788 -0.0041574 -0.00907068
0.0309915 -0.0020787 0.0379835
0.0502667 -0.00151178 0.0719986
0.0602823 0.0323143 0.034204
0.0109604 0.00491329 0.027779
0.0294797 0.0192752 0.101289
0.0859825 -0.027401 0.0306136
-0.0141729 -0.00434637 -0.00188973
0.000566918 0.00283459 0.00925966
0.0151178 0.00888171 0.0158737
0.0149288 0.00793685 0.0100155
-0.0151178 0.0164406 0.0780457
Vibration 8
-0.00529123 -0.00982658 0.0164406
-0.00377945 -0.0120942 0.0179524
-0.00321253 -0.0128501 0.0258892
-0.00510226 -0.013984 0.0362827
0.00472431 -0.0119053 0.000944863
-0.00132281 -0.00888171 0.0117163
0.0215429 -0.0190862 -0.0362827
0 0.00283459 0.0168186
-0.013606 0.027779 0.0723765
-0.00736993 -0.00944863 0.0124722
-0.0128501 -0.00472431 0.00188973
-0.0134171 -0.00566918 -0.00491329
-0.00699199 -0.0124722 0.00132281
-0.000944863 -0.0173855 0.0120942
-0.00226767 -0.0153068 0.0170075
-0.00793685 -0.0130391 -0.00718096
-0.00604712 -0.00264562 0.0194642
0.00548021 0.00680301 0.0149288
-0.00188973 0.0194642 0.00302356
-0.0219208 0.0222988 -0.0041574
-0.0323143 0.0145509 0.000944863
-0.0243775 0.0020787 0.0126612
-0.0336371 0.034393 -0.0164406
0.00850377 -0.0236216 0.00699199
0.0221098 -0.013795 -0.0357158
0.0311805 -0.00925966 -0.0102045
0.0168186 0.00245664 -0.00736993
0.0075589 0.0119053 -0.0228657
0.0113384 0.00491329 -0.0385504
0.0141729 0.00529123 0.00888171
0.000188973 0.0177634 0.00699199
-0.0105825 0.0268341 -0.0107714
-0.00661404 0.0243775 -0.0257003
-0.000188973 0.0145509 -0.0595264
0.0557469 -0.0130391 0.013606
0.0170075 -0.0119053 -0.0427078
-0.00510226 -0.0122832 0.0119053
-0.00472431 -0.0145509 0.0379835
-0.0162516 -0.000188973 -0.00113384
-0.0185193 -0.00151178 -0.0145509
0.00434637 -0.0222988 0.0171965
0.000566918 -0.0187083 0.0243775
0.0202201 0.00472431 0.0198421
0.0075589 0.0264562 -0.000566918
-0.0474321 0.0175745 -0.00453534
-0.0338261 -0.00396842 0.0156847
-0.027401 0.0391173 -0.0283459
-0.0391173 0.0379835 -0.0185193
-0.0449755 0.0364717 -0.0117163
0.00321253 -0.0217318 -0.00585815
0.00604712 -0.0173855 0.0315584
0.027401 -0.0393063 0.00377945
0.0226767 -0.00245664 0.0230547
-0.00245664 0.0200311 0.0190862
-0.0221098 0.0359048 -0.0132281
-0.0143619 0.0317474 -0.0398732
-0.0126612 0.034582 0.075778
Vibration 9
-0.0096376 -0.00170075 -0.00170075
-0.00869274 -0.00264562 -0.020409
-0.00491329 -0.00510226 -0.0268341
0 -0.00377945 -0.0202201
-0.00434637 -0.00170075 -0.00396842
-0.00907068 0.000944863 0.00831479
-0.00321253 -0.000377945 -0.0020787
-0.0119053 0.0122832 0.0300466
-0.0230547 0.0325033 0.075778
-0.00377945 -0.00359048 0.00491329
0.0294797 -0.0128501 0.0360938
0.0417629 -0.0166296 0.0432747
0.0107714 -0.0120942 0.0122832
-0.0239995 -0.00453534 -0.0202201
-0.0260782 -0.00283459 -0.0185193
0.0264562 -0.0166296 0.0224877
-0.00548021 -0.00718096 -0.0304246
-0.00661404 -0.00774788 -0.0340151
0.00340151 -0.0020787 -0.0170075
0.0158737 0.00434637 0.00359048
0.00925966 0.00132281 -0.00188973
-0.000944863 -0.00472431 -0.020409
0.0400622 0.0185193 0.0315584
-0.0444086 -0.00188973 -0.0459203
-0.00302356 0.0020787 -0.00151178
-0.00245664 0.00245664 -0.00245664
-0.00151178 0.00226767 -0.0020787
-0.000377945 0.00226767 -0.00113384
0.00226767 0.00226767 -0.000377945
-0.00113384 0.00226767 -0.0020787
0.000377945 0.00245664 -0.00113384
0.00151178 0.00264562 -0.000188973
0.00113384 0.00245664 -0.000188973
0.0158737 0.00359048 0.00264562
-0.00340151 0.00264562 -0.00340151
-0.00472431 0.00340151 -0.00245664
-0.00944863 -0.00283459 -0.0262672
0.00302356 -0.00453534 -0.0255113
0.0476211 -0.0171965 0.0538572
0.0746442 -0.0238105 0.0727545
-0.048377 0.000188973 -0.0451645
-0.0451645 -0.000944863 -0.0319364
-0.013606 -0.0122832 -0.048188
0.00302356 -0.00226767 -0.0181414
0.013984 0.00453534 0.00888171
-0.0041574 -0.0062361 -0.0257003
0.0217318 0.0020787 0.0164406
0.0566918 0.00321253 0.0810692
0.0642507 0.0651955 0.0217318
-0.0115273 -0.00944863 -0.0168186
-0.0383614 -0.0315584 -0.140596
-0.129635 0.0455424 -0.0258892
-0.0020787 0.00226767 -0.00264562
0.000944863 0.00264562 -0.000944863
0.00283459 0.00264562 0.000566918
0.00226767 0.00264562 0.000566918
-0.0236216 0.0427078 0.0882502
Vibration 10
-0.00699199 0.00566918 0.0360938
-0.00680301 0.00359048 0.041385
-0.00434637 0.00226767 -0.00151178
-0.00113384 0.00718096 -0.0211649
-0.00566918 0.0020787 -0.0041574
-0.00585815 0.00245664 0.0115273
-0.00661404 0.00075589 -0.00736993
-0.00302356 -0.00340151 -0.00793685
0.0020787 -0.0130391 -0.0323143
-0.00736993 0.00510226 0.0353379
0.000566918 0.0126612 0.02759
-0.000944863 0.00982658 0.00793685
-0.00850377 -0.00188973 -0.00113384
-0.0130391 -0.0107714 0.00982658
-0.0147399 -0.00566918 0.0255113
-0.0160627 -0.00245664 -0.0323143
-0.00888171 -0.00283459 -0.0215429
-0.0111494 -0.00377945 -0.0279679
-0.00548021 -0.000944863 -0.0190862
0.00396842 0.00302356 -0.00472431
-0.00491329 -0.000566918 -0.0156847
-0.00982658 -0.00377945 -0.0253223
0.0309915 0.0187083 0.0264562
0.0313695 -0.0360938 0.00718096
-0.00850377 -0.000188973 -0.00340151
0.00132281 0.00359048 0.00113384
0.00680301 0.00377945 0.00302356
-0.013795 -0.00151178 -0.00699199
-0.00283459 0 -0.00264562
0.0321253 0.00793685 0.0151178
0.027401 0.0041574 0.0107714
-0.00491329 -0.00434637 -0.00793685
-0.0247554 -0.00680301 -0.0162516
0.034582 0.00188973 0.00812582
0.0075589 0.00944863 0.00434637
-0.00642507 -0.00188973 -0.00321253
-0.00793685 0.00113384 0.0752111
0.00151178 0.0111494 -0.0474321
0.00736993 0.0213539 0.0353379
0.00340151 0.0168186 -0.000944863
-0.0179524 -0.0211649 0.00377945
-0.0238105 -0.0105825 0.027401
-0.0149288 -0.00680301 -0.0370386
-0.00642507 -0.00151178 -0.0196532
-0.00510226 0.000188973 -0.0145509
-0.0126612 -0.00453534 -0.0330702
-0.00661404 -0.0154958 -0.0109604
0.068786 -0.0124722 0.104124
0.0578256 0.103746 0.0160627
0.0200311 -0.0313695 -0.0283459
0.0224877 -0.0217318 0.0763449
0.0835259 -0.0780457 -0.00188973
0.0548021 0.013606 0.027401
0.048377 0.00736993 0.0213539
-0.0130391 -0.00888171 -0.0149288
-0.0457314 -0.0134171 -0.0281569
0.00359048 -0.0200311 -0.0459203
Vibration 11
-0.000188973 -0.000377945 -0.0187083
-0.000566918 0.00377945 -0.0185193
-0.0041574 0.00604712 -0.0041574
-0.00812582 0.00321253 -0.0041574
-0.00718096 -0.000188973 -0.00736993
-0.00434637 -0.00170075 -0.0119053
-0.0117163 -0.000377945 -0.00245664
-0.0062361 -0.00359048 -0.00359048
-0.0041574 -0.00453534 0.00604712
0.00510226 -0.0020787 -0.0134171
-0.00529123 -0.00188973 -0.0188973
-0.000188973 -0.00226767 -0.00699199
0.0160627 -0.00151178 0.0100155
0.0291018 -0.00151178 0.0175745
0.0226767 -0.00132281 0.00510226
0.0213539 -0.00188973 0.0234326
-0.000944863 0.00831479 0.00944863
-0.00113384 0.00736993 0.0164406
-0.00245664 0.00302356 0.0147399
-0.00434637 -0.000188973 0.00661404
0.0020787 0.00321253 0.00982658
0.00302356 0.0075589 0.0119053
-0.0170075 -0.0128501 -0.00831479
-0.0294797 0.0188973 -0.0232436
-0.0117163 -0.00283459 -0.00321253
-0.00245664 0 0.00283459
0.0153068 0.00529123 0.0124722
-0.0311805 -0.00548021 -0.0115273
-0.00888171 -0.00283459 -0.00302356
0.0667073 0.013795 0.0391173
0.0489439 0.00604712 0.0258892
-0.0258892 -0.0117163 -0.0190862
-0.0634948 -0.0164406 -0.0359048
0.0455424 -0.000188973 0.0130391
-0.0153068 -0.00396842 -0.00680301
-0.0102045 -0.00472431 -0.00453534
0.00188973 0.00548021 -0.0268341
-0.0117163 0.00396842 0.00188973
-0.0183303 -0.00151178 -0.0319364
-0.0096376 -0.00264562 -0.0115273
0.0457314 -0.00188973 0.0349599
0.0315584 -0.00075589 0.00925966
-0.00188973 0.0100155 0.0215429
-0.00321253 0.00226767 0.0173855
0.00491329 0.00188973 0.00907068
0.00604712 0.00925966 0.0141729
0.0062361 0.00869274 0.020409
-0.041196 0.00699199 -0.0572587
-0.0296687 -0.068975 -0.00359048
-0.0487549 0.0226767 -0.0321253
-0.00718096 0.0389284 -0.0638727
-0.068975 0.00982658 -0.00642507
0.117919 0.0253223 0.0682191
0.0907068 0.0128501 0.048188
-0.0512116 -0.0211649 -0.0387394
-0.111683 -0.0298577 -0.0655735
-0.00642507 -0.0062361 0.013795
Vibration 12
-0.00925966 0.00264562 0.00472431
-0.00944863 0.00113384 0.00604712
-0.00925966 0.00075589 -0.00226767
-0.00850377 0.00151178 -0.00548021
-0.00869274 0.00075589 -0.0041574
-0.00869274 0.00075589 -0.00453534
-0.00869274 0.00075589 -0.00302356
-0.00699199 -0.00226767 -0.0143619
-0.000944863 -0.0113384 -0.0302356
-0.00302356 0.000188973 0.0126612
-0.0211649 0.0103935 -0.0132281
-0.00831479 0.00566918 -0.00774788
0.0262672 -0.00944863 0.0262672
0.0515895 -0.020787 0.0587705
0.0311805 -0.0130391 0.0462983
0.0366607 -0.013606 0.0239995
-0.0109604 -0.00170075 -0.00718096
-0.013606 -0.00359048 -0.00925966
-0.0117163 -0.0041574 -0.00585815
-0.00642507 -0.00283459 0.000188973
-0.00793685 -0.00283459 -0.00377945
-0.0100155 -0.00226767 -0.00774788
0.0041574 0.00170075 0.0124722
-0.0389284 -0.00529123 -0.0512116
-0.00774788 0.00170075 -0.00491329
0.00359048 0.0075589 -0.00075589
-0.00907068 0.000944863 -0.00982658
0.0096376 0.00434637 0.00075589
0.000944863 0.00340151 -0.00264562
-0.0243775 -0.00188973 -0.0202201
-0.0100155 0.00075589 -0.0111494
0.0219208 0.00680301 0.00982658
0.0300466 0.00812582 0.0145509
-0.00075589 0.00434637 -0.00472431
0.0398732 0.027401 0.0228657
-0.00869274 0.000944863 -0.00774788
-0.0107714 0 0.0124722
-0.00812582 0.00188973 -0.00850377
-0.0478101 0.0234326 -0.0385504
-0.02759 0.0141729 -0.0323143
0.0880612 -0.0360938 0.0954312
0.0404401 -0.0175745 0.0582036
-0.0168186 -0.0041574 -0.0126612
-0.0132281 -0.00510226 -0.00642507
-0.00604712 -0.00302356 -0.00283459
-0.0103935 -0.00226767 -0.0102045
-0.0149288 -0.0154958 -0.00585815
0.0238105 -0.013795 0.0468652
0.0147399 0.041574 0.00850377
-0.0973209 0.00925966 -0.118297
0.00604712 0.0599043 -0.0742662
-0.0808803 -0.0788016 -0.0175745
-0.0451645 -0.00529123 -0.0330702
-0.0219208 -0.00132281 -0.0185193
0.0393063 0.0102045 0.0217318
0.0506447 0.0122832 0.0287238
-0.00132281 -0.0185193 -0.0349599
Vibration 13
-0.00113384 -0.000566918 -0.0120942
-0.00151178 0.00888171 -0.0151178
-0.00604712 0.0124722 -0.0192752
-0.0113384 0.00982658 -0.0330702
-0.0156847 -0.00226767 -0.0177634
-0.0105825 -0.00491329 -0.0120942
-0.0249444 -0.00340151 -0.0096376
-0.013984 -0.00812582 -0.00113384
-0.0124722 -0.00680301 0.0183303
0.00831479 -0.00377945 -0.00188973
0.0215429 -0.0103935 0.0156847
0.0179524 -0.00869274 0.0166296
-0.000377945 -0.000188973 -0.00151178
-0.00283459 0.00302356 -0.00812582
0.00151178 0.00075589 -0.00850377
-0.0257003 0.00718096 -0.0198421
-0.00226767 0.0149288 -0.00491329
-0.00377945 0.0126612 0.00453534
-0.000566918 0.0075589 0.0109604
0.00396842 0.00453534 0.00680301
0.0115273 0.00888171 0.00736993
0.00736993 0.013984 0.00226767
-0.00661404 -0.0168186 -0.0062361
0.0120942 0.00283459 0.0175745
-0.0253223 -0.00907068 -0.00944863
-0.00434637 -0.000188973 0.00359048
-0.0196532 -0.00907068 -0.00774788
-0.0124722 -0.00812582 -0.00302356
-0.0103935 -0.00850377 -0.00510226
-0.0111494 -0.00774788 -0.00453534
0.0147399 -0.00472431 0.0111494
0.0298577 -0.00321253 0.0222988
0.0132281 -0.00566918 0.0132281
0.0283459 -0.00529123 0.00377945
0.0574477 0.0309915 0.0451645
-0.0215429 -0.0128501 -0.0117163
0.00434637 0.0115273 -0.00907068
-0.0175745 0.0147399 -0.0393063
0.0338261 -0.0171965 0.0272121
0.0279679 -0.0134171 0.0296687
-0.0105825 0.00812582 -0.0156847
-0.00170075 0.00302356 -0.013795
-0.00888171 0.0149288 0.00566918
-0.00226767 0.00585815 0.0156847
0.0183303 0.00774788 0.0109604
0.0124722 0.0170075 0.00264562
0.0680301 0.0523454 0.0933525
-0.0880612 0.0461093 -0.126801
-0.0147399 -0.178957 -0.00472431
-0.0302356 0.0124722 -0.0177634
0.0188973 0.0427078 0.0856046
0.0706758 -0.0493218 0.00869274
-0.0196532 -0.00869274 -0.0105825
0.0257003 -0.00302356 0.0166296
0.054991 -0.000188973 0.0385504
0.0226767 -0.00529123 0.0211649
-0.0151178 -0.00982658 0.0260782
Vibration 14
0.00585815 0.00585815 0.0185193
0.00529123 0.00585815 0.0313695
0.00491329 0.00699199 0.00510226
0.00396842 0.0102045 -0.0192752
0.000566918 0.00245664 -0.00642507
0.00321253 0.00226767 0.00699199
-0.00566918 -0.00226767 -0.013606
0.00226767 -0.00925966 0.00302356
0.0075589 -0.0151178 0.00566918
-0.00661404 0.0102045 0.00396842
-0.0268341 0.0202201 -0.0215429
-0.034204 0.0213539 -0.0326923
-0.0162516 0.013795 -0.0149288
-0.0200311 0.0115273 -0.013795
-0.00907068 0.00944863 0.00132281
0.0247554 0.00226767 0.0217318
0.00434637 0.0062361 0.000377945
0.00510226 0.00680301 0.00132281
0.00472431 0.00548021 0.000188973
0.00396842 0.00340151 -0.00377945
0.00302356 0.00340151 -0.00661404
0.00453534 0.00472431 -0.00434637
0.00472431 0.00283459 -0.00321253
-0.00151178 0.0075589 -0.00396842
-0.00907068 -0.0130391 -0.00812582
-0.0041574 -0.0124722 0.00132281
-0.0156847 -0.0154958 -0.00434637
-0.0130391 -0.0132281 -0.00472431
-0.00642507 -0.013984 -0.00699199
-0.0075589 -0.013606 0.00396842
0.0096376 -0.00831479 0.0158737
0.0151178 -0.00585815 0.0179524
0.00151178 -0.00869274 0.00585815
0.0173855 -0.0117163 -0.00188973
0.0285349 -0.0020787 0.0258892
-0.00491329 -0.0153068 -0.00566918
0.00491329 0.0041574 0.0587705
0.00321253 0.0147399 -0.0387394
-0.0357158 0.0270231 -0.0294797
-0.048377 0.0270231 -0.0495108
-0.02759 0.0107714 -0.0219208
-0.000566918 0.00566918 0.0120942
0.00585815 0.00736993 0.00340151
0.00472431 0.00510226 0.00245664
0.00170075 0.00226767 -0.0102045
0.00604712 0.00585815 -0.00548021
-0.00340151 -0.00434637 -0.0119053
0.0134171 -0.00359048 0.00680301
0.00491329 0.0175745 -0.00321253
0.174989 -0.0340151 0.164595
-0.0659514 -0.169508 -0.170831
-0.122076 0.227901 -0.0132281
-0.0105825 -0.0158737 0.00359048
0.0202201 -0.00604712 0.0245664
0.0308025 -0.00151178 0.0292908
0.00491329 -0.00699199 0.00718096
0.00642507 -0.0234326 0.0020787
Vibration 15
0.00510226 0.00113384 -0.0179524
0.0041574 0.00831479 -0.0130391
-0.00151178 0.0115273 0.00359048
-0.00699199 0.00812582 0.00132281
-0.00585815 0.00170075 -0.00434637
-0.00132281 -0.00113384 -0.0100155
-0.0115273 -0.000188973 -0.00302356
-0.00377945 -0.00453534 -0.000566918
-0.00302356 -0.00302356 0.0156847
0.0122832 -0.00151178 -0.0168186
0.0187083 -0.00718096 -0.00377945
0.0170075 -0.00529123 0.00321253
0.00793685 0.00472431 -0.00510226
0.0075589 0.00944863 -0.0124722
0.0105825 0.00604712 -0.0175745
-0.00793685 0.0107714 -0.00529123
0.00113384 0.0102045 0.0158737
-0.00283459 0.00680301 0.0247554
-0.00888171 -0.00642507 0.0130391
-0.0122832 -0.0149288 -0.00340151
-0.00188973 -0.00718096 -0.00245664
0.0041574 0.00585815 0.00831479
-0.0185193 -0.0134171 -0.0102045
0.00396842 0.0228657 0.0100155
-0.0105825 -0.00585815 -0.00529123