[Molden Format]
[FREQ]
6.1
21.9
27.1
33.0
40.4
46.7
50.5
57.7
64.2
81.2
100.4
106.7
113.3
123.1
125.9
139.8
146.3
150.8
174.5
182.2
197.9
220.1
228.6
245.6
258.1
261.7
276.3
292.8
299.9
315.4
326.3
339.6
352.3
359.6
359.8
368.0
371.3
387.1
422.9
431.8
465.0
492.2
508.4
520.7
525.9
537.2
553.0
556.2
584.0
592.9
609.0
614.5
617.4
632.1
649.0
655.5
668.1
687.1
710.4
716.6
745.5
755.8
762.9
784.1
800.4
819.7
838.2
849.3
878.3
883.9
885.8
898.5
903.9
939.7
944.5
947.4
1004.5
1008.7
1009.5
1010.3
1017.5
1018.3
1028.8
1034.9
1046.6
1061.9
1074.5
1082.9
1094.0
1104.4
1127.5
1178.6
1182.0
1182.7
1188.3
1190.6
1212.3
1226.2
1233.1
1260.3
1262.8
1264.4
1273.0
1279.3
1285.9
1291.5
1294.3
1299.9
1317.1
1327.9
1328.5
1337.1
1339.7
1347.3
1348.7
1351.0
1363.9
1374.0
1376.6
1389.6
1409.0
1429.9
1459.2
1512.9
1520.5
1525.3
1533.0
1537.9
1578.2
1580.5
1585.5
1635.2
1676.5
1692.1
1696.3
1697.2
1697.7
1704.3
1706.1
1706.9
1725.3
1736.2
1912.4
2444.8
2640.0
2651.1
2653.5
2664.1
2670.8
2734.2
2737.6
2743.8
2743.9
2744.3
2744.8
2746.1
2754.9
2756.0
2757.5
2761.5
2762.5
2764.1
2767.1
2768.5
2778.4
       
[FR-COORD]
C -2.39882 -2.86029 -0.618129
C 0.283837 -2.86029 -0.618129
C 1.58189 -0.614917 -0.618129
N 0.379268 1.68488 -0.317663
C -2.25936 1.75367 -0.0183303
C -3.65851 -0.592996 -0.403834
N -3.47351 3.77133 0.915194
C -6.31584 -0.483203 -0.650633
N -8.4947 -0.406858 -0.854534
C -3.7203 -5.26345 -0.970752
C -3.10992 -6.77845 -3.0606
C -4.36753 -9.03365 -3.46973
C -6.24554 -9.78481 -1.74403
C -6.85007 -8.32084 0.365284
C -5.57658 -6.04845 0.731324
O -7.32533 -12.0207 -2.36972
C 4.3458 -0.630413 -0.9528
C 5.87384 -1.52841 1.00155
C 8.48185 -1.61987 0.681246
C 9.56693 -0.829968 -1.59361
C 8.02038 0.0391173 -3.55476
C 5.41444 0.133037 -3.24277
C 12.3556 -0.911415 -1.95624
C -9.36888 -12.8773 -0.849432
C -2.72706 6.24687 1.19015
C -0.807102 7.54379 2.52864
C 1.75707 6.51861 3.07421
C 3.09499 5.06069 1.3436
C 1.81697 4.04477 -0.906502
C 2.9561 7.331 5.28367
C 5.47605 6.71968 5.72152
C 6.83646 5.35359 3.92194
C 5.65141 4.53251 1.72362
O 1.861 4.72734 -3.0451
O -1.20149 9.72774 3.22312
O -4.83071 7.68136 0.532903
H 1.29163 -4.65005 -0.702222
H -5.45451 3.66475 0.860581
H -1.6537 -6.1554 -4.38398
H -3.94688 -10.2219 -5.09281
H -8.29155 -8.90855 1.69886
H -6.03881 -4.87625 2.36594
H 5.02403 -2.14635 2.77563
H 9.67313 -2.31567 2.20663
H 8.86225 0.639483 -5.3347
H 4.20804 0.802189 -4.78138
H 13.1213 0.969618 -2.41091
H 12.8753 -2.17243 -3.52831
H 13.3757 -1.58869 -0.280246
H -9.93712 -14.6195 -1.82774
H -10.9224 -11.5113 -0.852455
H -8.72902 -13.2989 1.07072
H 1.90503 8.49753 6.62821
H 6.40145 7.34385 7.451
H 8.82634 4.93615 4.2294
H 6.72837 3.48957 0.309348
H -4.8993 9.20712 1.63405

[FR-NORM-COORD]
Vibration 1
-0.00396842 0.00075589 0.0041574
-0.00359048 0.000188973 0.0198421
-0.00377945 0 0.0168186
-0.00453534 0.00113384 0.00699199
-0.00529123 0 0.00359048
-0.00453534 0.00113384 -0.00736993
-0.00604712 -0.00680301 0.0170075
-0.00245664 0.00359048 -0.0289128
-0.00075589 0.00585815 -0.0461093
-0.0020787 0.000377945 -0.000944863
0.00850377 -0.00151178 0.00359048
0.0109604 -0.0020787 -0.000377945
0.00264562 -0.00075589 -0.00888171
-0.00831479 0.00132281 -0.013606
-0.0107714 0.0020787 -0.0096376
0.00661404 -0.0020787 -0.0115273
-0.00321253 -0.000377945 0.0213539
-0.0041574 0.0230547 0.0326923
-0.00377945 0.020409 0.0351489
-0.00302356 -0.00510226 0.0268341
-0.0020787 -0.0270231 0.0162516
-0.00226767 -0.0245664 0.013795
-0.00264562 -0.00888171 0.0291018
-0.0020787 0.000188973 -0.0219208
-0.0126612 -0.00907068 0.0383614
0.00396842 -0.00888171 0.0149288
0.013984 0.000377945 -0.0156847
0.00548021 0.00907068 -0.0296687
-0.0105825 -0.00188973 -0.0153068
0.0313695 0.00396842 -0.0260782
0.0381725 0.0160627 -0.0496998
0.0287238 0.0257003 -0.0644397
0.0124722 0.0236216 -0.0546131
-0.0296687 -0.00888171 -0.0181414
0.00472431 -0.0120942 0.0268341
-0.0253223 -0.0096376 0.0752111
-0.00359048 -0.000377945 0.0317474
-0.00642507 -0.0111494 0.020976
0.0151178 -0.00264562 0.0103935
0.0192752 -0.00359048 0.00283459
-0.0147399 0.00245664 -0.0200311
-0.0190862 0.00377945 -0.0132281
-0.00510226 0.0432747 0.0393063
-0.00453534 0.0383614 0.0438416
-0.00113384 -0.0472432 0.0100155
-0.00188973 -0.0421409 0.00604712
-0.00132281 -0.0115273 0.0202201
-0.00226767 -0.0171965 0.0359048
-0.00434637 -0.000944863 0.0332592
0.00226767 -0.000377945 -0.0236216
-0.00132281 0.000944863 -0.0311805
-0.0124722 0.00132281 -0.0183303
0.0381725 -0.00283459 -0.0145509
0.0506447 0.0175745 -0.0568808
0.0334482 0.0351489 -0.082959
0.00472431 0.0311805 -0.0663294
-0.0062361 -0.0096376 0.0767229
Vibration 2
0.00661404 -0.0141729 0.0291018
0.00680301 -0.0120942 0.0194642
0.00491329 -0.0111494 0.0173855
0.0041574 -0.0117163 0.0211649
0.00529123 -0.0134171 0.0313695
0.00585815 -0.0158737 0.0436527
0.0062361 -0.00982658 0.0251334
0.00340151 -0.0196532 0.0663294
0.00151178 -0.0236216 0.0863605
0.00642507 -0.0120942 0.0158737
0.00793685 0.0020787 0.00604712
0.000944863 0.0102045 -0.0166296
-0.00869274 0.00396842 -0.0298577
-0.00680301 -0.0130391 -0.0173855
0.000944863 -0.0211649 0.00585815
-0.0192752 0.0162516 -0.05518
0.0041574 -0.00831479 0.0105825
0.00982658 -0.00245664 0.00888171
0.00925966 0.00113384 0.00321253
0.00302356 -0.00132281 -0.00075589
-0.00283459 -0.00774788 0.000944863
-0.00226767 -0.0113384 0.00661404
0.00226767 0.00321253 -0.00680301
-0.0385504 0.0200311 -0.0788016
0.000377945 -0.0041574 -0.00396842
0.000944863 0.0162516 -0.0253223
0.00226767 0.0245664 -0.0164406
0.000377945 0.00491329 -0.000944863
0 -0.0124722 0.00699199
0.00396842 0.0500777 -0.0266451
0.00377945 0.0532903 -0.020976
0.00113384 0.0292908 -0.00491329
-0.000377945 0.00548021 0.00491329
-0.00188973 -0.0260782 0.00264562
0.000188973 0.0249444 -0.0531013
-0.00699199 -0.0183303 -0.0115273
0.00774788 -0.0111494 0.0141729
0.0062361 -0.0153068 0.0383614
0.0141729 0.0075589 0.0153068
0.00151178 0.0219208 -0.0251334
-0.0119053 -0.0196532 -0.0257003
0.00170075 -0.034204 0.0153068
0.0149288 -0.00075589 0.0119053
0.013984 0.00604712 0.00170075
-0.00793685 -0.0100155 -0.0020787
-0.00680301 -0.0164406 0.00793685
-0.00151178 0.00510226 -0.00548021
0.000944863 0.00642507 -0.00982658
0.00680301 0.0020787 -0.0100155
-0.0495108 0.0364717 -0.101667
-0.0249444 0.0357158 -0.0742662
-0.0555579 -0.00718096 -0.0791795
0.00548021 0.0663294 -0.0398732
0.00529123 0.0731324 -0.0291018
0.000566918 0.0298577 -0.000188973
-0.00188973 -0.0122832 0.0166296
-0.00642507 -0.00529123 -0.0296687
Vibration 3
-0.0156847 0.013795 -0.00491329
-0.0156847 0.0100155 -0.0103935
-0.0120942 0.00774788 -0.00321253
-0.00831479 0.00888171 0.00132281
-0.00774788 0.0122832 0.00585815
-0.0122832 0.013984 0.0100155
-0.00283459 0.0162516 0.00396842
-0.0141729 0.0149288 0.0313695
-0.0160627 0.0147399 0.0504557
-0.0134171 0.013795 -0.013606
-0.0198421 0.0311805 -0.0283459
-0.00377945 0.0226767 -0.0298577
0.0192752 -0.00396842 -0.0162516
0.020598 -0.0175745 -0.00661404
0.00377945 -0.00793685 -0.00548021
0.0394953 -0.013795 -0.0154958
-0.0115273 -0.000188973 0.00264562
-0.020409 -0.00434637 0.00774788
-0.020598 -0.0222988 0.0122832
-0.0119053 -0.0364717 0.0115273
-0.00302356 -0.0283459 0.00793685
-0.00283459 -0.00982658 0.00359048
-0.0122832 -0.062172 0.0141729
0.0806913 -0.0574477 0.0153068
0.00340151 0.0154958 -0.00245664
0.00510226 0.013606 -0.00302356
0.00377945 0.00982658 -0.00340151
-0.00075589 0.00510226 -0.00264562
-0.00434637 0.00604712 -0.00113384
0.00718096 0.0102045 -0.00548021
0.0062361 0.00548021 -0.00661404
0.00170075 -0.000188973 -0.00585815
-0.00151178 -0.000377945 -0.00396842
-0.00340151 0.00340151 -0.00188973
0.00907068 0.0149288 -0.00510226
0.00642507 0.0187083 -0.00510226
-0.0185193 0.00869274 -0.0179524
-0.00302356 0.020409 0.00680301
-0.0359048 0.0504557 -0.0370386
-0.00736993 0.0349599 -0.0398732
0.034582 -0.0351489 0.00075589
0.00491329 -0.0187083 0.00264562
-0.027401 0.00566918 0.00793685
-0.02759 -0.0266451 0.0158737
0.00396842 -0.0379835 0.00793685
0.00396842 -0.0041574 0.00075589
0.00396842 -0.0725655 -0.000377945
-0.0221098 -0.0793685 0.0247554
-0.0192752 -0.0574477 0.020409
0.0988327 -0.0657625 0.0196532
0.0544241 -0.0874943 0.0436527
0.119431 -0.0502667 0.00396842
0.0105825 0.0141729 -0.00604712
0.00888171 0.00566918 -0.00831479
0.00113384 -0.0041574 -0.00661404
-0.00491329 -0.00472431 -0.00321253
0.00718096 0.0188973 -0.00529123
Vibration 4
0.00113384 -0.00566918 -0.0151178
0.00113384 -0.00585815 -0.0266451
0.00113384 -0.00604712 -0.0170075
0.00113384 -0.00642507 -0.0102045
0.00170075 -0.00661404 -0.00699199
0.00132281 -0.00718096 -0.00170075
0.00245664 -0.00491329 -0.0102045
-0.00132281 -0.0109604 0.0215429
-0.00321253 -0.0149288 0.0417629
-0.00359048 -0.00396842 -0.0117163
-0.0374166 0.0103935 -0.0317474
-0.0474321 0.0153068 -0.0285349
-0.0219208 0.00566918 -0.00472431
0.013606 -0.00925966 0.0158737
0.0221098 -0.0134171 0.0119053
-0.0370386 0.0132281 -0.00548021
0.00264562 -0.00113384 -0.00510226
-0.00585815 0.00793685 0.00585815
-0.00283459 0.0251334 0.0249444
0.00869274 0.0336371 0.0334482
0.0168186 0.0192752 0.020598
0.013795 0.00170075 0.00132281
0.0124722 0.0600933 0.0572587
-0.00264562 -0.00359048 0.0309915
0.00680301 -0.00585815 -0.0096376
0.00377945 -0.0120942 0.00113384
0.00491329 -0.0124722 -0.00510226
0.00340151 -0.00566918 -0.0120942
0.000377945 -0.00529123 -0.0105825
0.00812582 -0.0173855 -0.00510226
0.0102045 -0.013984 -0.0122832
0.00944863 -0.00396842 -0.020409
0.00604712 0.000566918 -0.020409
-0.000944863 -0.00604712 -0.0107714
0.00188973 -0.0162516 0.0122832
0.0111494 -0.00170075 -0.0130391
0.000566918 -0.00566918 -0.0383614
0.00264562 -0.00188973 -0.0119053
-0.0565028 0.0175745 -0.0489439
-0.0746442 0.0262672 -0.0434637
0.0336371 -0.0168186 0.0340151
0.0489439 -0.0238105 0.0268341
-0.0149288 0.00302356 -0.000188973
-0.00944863 0.0336371 0.0340151
0.0257003 0.0230547 0.0260782
0.020409 -0.00812582 -0.00812582
-0.00170075 0.0672742 0.0633058
0.0379835 0.0646286 0.061983
0.00472431 0.0702978 0.0661404
-0.0187083 0.00226767 0.0298577
-0.0062361 -0.0075589 0.0736993
0.0385504 -0.0164406 0.0145509
0.00888171 -0.0236216 0.000944863
0.0126612 -0.0183303 -0.0120942
0.0113384 0.000188973 -0.0268341
0.00566918 0.00888171 -0.0268341
0.00453534 -0.00850377 -0.00434637
Vibration 5
0.00888171 -0.00359048 -0.013795
0.00850377 -0.00472431 -0.0115273
0.00850377 -0.00453534 -0.00359048
0.00888171 -0.00510226 0.00604712
0.00850377 -0.00604712 0.0041574
0.00925966 -0.00359048 -0.0128501
0.00510226 -0.0168186 0.0239995
0.0109604 -0.00283459 -0.0323143
0.0128501 -0.00340151 -0.0508336
0.00321253 -0.00075589 -0.0134171
-0.0289128 0.0109604 -0.0306136
-0.0394953 0.0156847 -0.0255113
-0.0153068 0.00869274 -0.00226767
0.0173855 -0.00245664 0.0149288
0.0257003 -0.0062361 0.00869274
-0.0292908 0.0147399 0
0.00869274 -0.00453534 -0.00340151
0.00699199 -0.020598 -0.00925966
0.00661404 -0.0241885 -0.0096376
0.00869274 -0.0117163 -0.00453534
0.0105825 0.00548021 0.00170075
0.0107714 0.00888171 0.0020787
0.00831479 -0.0181414 -0.00585815
0.0102045 -0.00434637 0.0423299
-0.0162516 -0.0122832 0.0289128
-0.0041574 0.0105825 -0.0126612
-0.00321253 0.0175745 -0.00453534
0 0.00132281 0.0119053
0.00793685 -0.00491329 0.0102045
-0.00793685 0.0377945 -0.00925966
-0.0102045 0.0379835 0.00396842
-0.00850377 0.0149288 0.0228657
-0.00321253 -0.00340151 0.0270231
0.0117163 -0.00321253 0.0105825
-0.000377945 0.0217318 -0.0442196
-0.0404401 -0.0319364 0.0587705
0.0075589 -0.00491329 -0.0177634
0.00434637 -0.0313695 0.0383614
-0.0459203 0.0158737 -0.0468652
-0.0653845 0.0243775 -0.0385504
0.0353379 -0.00736993 0.0321253
0.0498888 -0.0132281 0.020409
0.00548021 -0.0311805 -0.013606
0.00510226 -0.0372276 -0.0143619
0.0119053 0.0160627 0.00585815
0.0124722 0.0215429 0.00604712
0.0130391 -0.0202201 -0.00585815
0.00396842 -0.0192752 -0.00642507
0.00736993 -0.0211649 -0.00642507
-0.00302356 -0.00188973 0.0455424
0.00302356 -0.0124722 0.0850377
0.0559359 -0.0117163 0.0253223
-0.0100155 0.0525344 -0.0234326
-0.013795 0.0548021 -0.000188973
-0.0107714 0.0120942 0.0340151
-0.00132281 -0.020787 0.041196
-0.0153068 -0.0115273 0.0325033
Vibration 6
-0.0188973 0.000944863 0.000566918
-0.0183303 -0.00812582 0.00113384
-0.0105825 -0.0130391 0.00075589
-0.00245664 -0.00869274 0.00529123
-0.00132281 -0.000377945 0.0103935
-0.0102045 0.00548021 0.00472431
0.00718096 0.000188973 0.0215429
-0.00907068 0.0187083 -0.00132281
-0.00812582 0.0311805 -0.00680301
-0.0219208 0.00359048 -0.00548021
0.00075589 -0.00642507 0.00793685
0.0126612 -0.0132281 0.0096376
0.000377945 -0.0105825 -0.00245664
-0.0291018 0.00359048 -0.020787
-0.0398732 0.0100155 -0.0221098
0.0215429 -0.0230547 0.00566918
-0.0111494 -0.0158737 -0.00302356
-0.00888171 -0.0281569 -0.0105825
-0.00718096 -0.00396842 -0.00585815
-0.00812582 0.0328812 0.00661404
-0.0113384 0.0326923 0.00907068
-0.0126612 0.00736993 0.00377945
-0.00529123 0.0765339 0.0181414
0.0219208 -0.0317474 0.00113384
0.00736993 0.000944863 0.0126612
0.0222988 0.0102045 -0.0192752
0.0154958 -0.000188973 -0.00793685
0.0103935 -0.0156847 0.00132281
0.00566918 -0.0143619 0.00340151
0.0153068 0.0041574 -0.00944863
0.0109604 -0.00831479 -0.00132281
0.00680301 -0.0239995 0.00736993
0.00680301 -0.0272121 0.00869274
0.00491329 -0.0141729 0.00321253
0.0406291 0.0245664 -0.0531013
0.000566918 -0.00283459 0.0241885
-0.0239995 -0.0113384 0.000377945
0.00661404 0.000377945 0.0357158
0.0107714 -0.0096376 0.0173855
0.0325033 -0.0217318 0.020976
-0.0423299 0.00850377 -0.0328812
-0.0612271 0.0187083 -0.034393
-0.0075589 -0.0536682 -0.0188973
-0.00510226 -0.0111494 -0.0105825
-0.0122832 0.0557469 0.0160627
-0.0149288 0.00850377 0.00585815
-0.0309915 0.0927855 0.0410071
0.0202201 0.100722 0.00736993
-0.00302356 0.0744552 0.0156847
0.0472432 -0.0470542 0.013606
0.00699199 -0.0489439 -0.0211649
0.0145509 -0.00718096 0.00907068
0.0192752 0.0168186 -0.0175745
0.0109604 -0.00566918 -0.00245664
0.00396842 -0.0334482 0.0130391
0.00491329 -0.0374166 0.0149288
0.0258892 0.0164406 -0.00075589
Vibration 7
0.00566918 0.00340151 -0.0230547
0.00548021 0.0105825 -0.0425188
0.00151178 0.0128501 -0.0349599
-0.00188973 0.0096376 -0.0247554
0 0.00264562 -0.00736993
0.00264562 0.000377945 -0.00377945
0.000188973 -0.00566918 0.0124722
-0.000377945 -0.00529123 0.0257003
-0.00302356 -0.0102045 0.0519675
0.00925966 0.000188973 -0.0120942
0.0211649 -0.0187083 0.00510226
0.0224877 -0.0219208 0.0171965
0.00982658 -0.00472431 0.0105825
-0.00075589 0.0130391 -0.00472431
-0.000188973 0.013984 -0.0154958
0.0105825 -0.00888171 0.0238105
0.00321253 0.0117163 -0.0215429
-0.0170075 -0.0188973 -0.0190862
-0.0154958 -0.0319364 0.00113384
0.0075589 -0.0132281 0.0183303
0.0287238 0.020976 0.0170075
0.0260782 0.0332592 -0.00321253
0.0096376 -0.0336371 0.0391173
-0.0279679 0.0292908 -0.00585815
-0.0107714 -0.00302356 0.0153068
-0.00283459 0.0041574 -0.00472431
-0.00359048 0.00113384 -0.00661404
-0.00472431 0.00453534 -0.0103935
-0.00642507 0.0147399 -0.013984
-0.00453534 -0.00736993 -0.00321253
-0.0062361 -0.013606 -0.00245664
-0.00699199 -0.0105825 -0.00548021
-0.0062361 -0.00113384 -0.00944863
-0.0120942 0.027401 -0.0100155
0.00359048 0.00888171 -0.0154958
-0.0247554 -0.0122832 0.0376055
0.00944863 0.0132281 -0.0565028
-0.000188973 -0.013984 0.0281569
0.0287238 -0.0309915 0.00774788
0.0323143 -0.0362827 0.0302356
-0.00869274 0.0249444 -0.00793685
-0.00699199 0.0258892 -0.0258892
-0.0349599 -0.0340151 -0.0328812
-0.0319364 -0.0574477 0.00245664
0.0466762 0.0370386 0.0309915
0.0430858 0.0582036 -0.00566918
0.0262672 -0.0430858 0.0291018
0.0117163 -0.0506447 0.0532903
-0.00680301 -0.0268341 0.0519675
-0.0309915 0.027401 -0.00075589
-0.0115273 0.047999 -0.0462983
-0.0676522 0.0387394 0.00944863
-0.00359048 -0.00944863 -0.00075589
-0.00661404 -0.020976 0.000377945
-0.00812582 -0.0156847 -0.00472431
-0.00604712 0.00170075 -0.0113384
-0.00925966 -0.00377945 0.0268341
Vibration 8
-0.00566918 -0.00529123 -0.0120942
-0.00548021 -0.00831479 -0.0141729
-0.00132281 -0.0103935 -0.00188973
0.00245664 -0.0103935 0.013984
0.000944863 -0.00718096 0.00113384
-0.00245664 -0.00396842 -0.00529123
0.00264562 -0.00075589 -0.0117163
-0.0020787 0.0020787 -0.00510226
-0.00188973 0.00850377 -0.00529123
-0.00888171 -0.00359048 -0.0122832
-0.00226767 -0.0134171 -0.00340151
-0.000944863 -0.0151178 0.00226767
-0.00718096 -0.0075589 -0.00132281
-0.0170075 0.00396842 -0.0120942
-0.0177634 0.00510226 -0.0175745
-0.0020787 -0.0124722 0.0075589
-0.00132281 -0.0119053 -0.00113384
-0.00566918 -0.0599043 -0.0198421
-0.00529123 -0.0570697 -0.0177634
0 -0.00434637 0.00302356
0.00453534 0.0421409 0.0202201
0.00396842 0.0366607 0.0171965
0.00075589 0.00151178 0.00661404
-0.00170075 -0.0102045 0.0096376
0.0134171 -0.00264562 -0.0130391
-0.00736993 -0.00944863 0.0268341
0.00718096 0.0158737 0.00699199
0.000188973 0.000944863 0.0141729
-0.00170075 -0.00699199 0.0187083
0.0251334 0.0548021 -0.0164406
0.0317474 0.0738883 -0.0298577
0.0190862 0.0442196 -0.0168186
0.00283459 0.00699199 0.00585815
-0.00226767 -0.00510226 0.0188973
-0.0387394 -0.0289128 0.0699199
0.0262672 0.00434637 -0.0359048
-0.00793685 -0.00925966 -0.0243775
0.00283459 0.00888171 -0.0257003
0.00264562 -0.0198421 -0.00113384
0.00548021 -0.0226767 0.00944863
-0.0236216 0.0115273 -0.0158737
-0.0245664 0.0126612 -0.0247554
-0.00907068 -0.100722 -0.0357158
-0.00907068 -0.0959981 -0.0325033
0.00831479 0.08277 0.0355268
0.00774788 0.0699199 0.0283459
-0.000377945 0.00472431 0.0181414
0.00359048 0.0107714 0
-0.00075589 -0.00699199 0.0041574
0.00642507 -0.0187083 0.0198421
-0.00661404 -0.0158737 -0.0020787
-0.00377945 0.00434637 0.013606
0.0315584 0.0702978 -0.0239995
0.0455424 0.108281 -0.0495108
0.0217318 0.0508336 -0.0251334
-0.00642507 -0.0162516 0.0160627
-0.0134171 -0.0230547 -0.000566918
Vibration 9
-0.00226767 -0.00170075 -0.0330702
-0.00170075 -0.00340151 -0.0462983
0.00075589 -0.00548021 -0.0221098
0.00566918 -0.00566918 0.00396842
0.00566918 -0.0041574 0.00132281
0.00245664 -0.00113384 -0.00812582
0.00548021 -0.00661404 0.0062361
0.000566918 0.00434637 0.0130391
-0.00113384 0.0109604 0.0328812
-0.00774788 0.00132281 -0.0308025
0.00302356 -0.020787 -0.0117163
0.00321253 -0.0238105 0.00283459
-0.00925966 -0.00472431 -0.00245664
-0.0257003 0.020598 -0.0245664
-0.0241885 0.0215429 -0.0385504
-0.00340151 -0.0132281 0.0181414
0.00188973 -0.00245664 -0.0158737
0.0020787 0.0464873 0.0062361
0.00283459 0.0496998 0.0117163
0.00264562 0.00132281 -0.00529123
0.00226767 -0.0470542 -0.0262672
0.00151178 -0.0464873 -0.0304246
0.00340151 0.00264562 -0.000188973
-0.00188973 -0.00396842 0.0257003
0.000944863 -0.00510226 0.00718096
-0.00453534 -0.00132281 0.0105825
-0.00170075 0.00642507 0.0105825
0.000377945 -0.000566918 0.0185193
0.0134171 -0.00774788 0.0141729
-0.0020787 0.0226767 0.00529123
-0.000566918 0.0313695 0.00812582
0.000566918 0.020787 0.0170075
0.00113384 0.00472431 0.0226767
0.0385504 -0.0164406 0.0117163
-0.0130391 -0.00396842 0.0145509
-0.00377945 -0.0105825 0.0096376
-0.00302356 -0.00321253 -0.0672742
0.00510226 -0.00812582 0.00869274
0.0126612 -0.0364717 -0.00869274
0.013795 -0.0410071 0.0183303
-0.0383614 0.0383614 -0.0304246
-0.034582 0.0379835 -0.0531013
0.00188973 0.0835259 0.0187083
0.00377945 0.089951 0.0292908
0.00226767 -0.0846597 -0.0387394
0.00075589 -0.0786126 -0.0434637
0.00075589 0.00113384 -0.0113384
0.00888171 -0.00680301 0.00944863
0.00151178 0.0156847 0.0062361
0.0111494 -0.0213539 0.0491329
-0.00982658 -0.0132281 0.00188973
-0.00472431 0.0270231 0.0334482
-0.0041574 0.0291018 -0.00151178
-0.00075589 0.0457314 0.00302356
0.00132281 0.0258892 0.0190862
0.00188973 -0.00264562 0.0285349
-0.00982658 -0.013606 0.0132281
Vibration 10
-0.0149288 0.0062361 -0.013795
-0.0151178 0 -0.0173855
-0.0105825 -0.00302356 -0.00907068
-0.00453534 -0.00132281 0.0020787
-0.00510226 0.00453534 -0.00283459
-0.0103935 0.00774788 -0.00925966
-0.000566918 0.00642507 -0.00132281
-0.0100155 0.0122832 -0.0115273
-0.00944863 0.0147399 -0.0154958
-0.0102045 0.00245664 -0.00907068
-0.0319364 0.0185193 -0.0272121
-0.0107714 0.00396842 -0.0109604
0.0300466 -0.0241885 0.020976
0.0517785 -0.0393063 0.0376055
0.0311805 -0.0247554 0.0226767
0.0546131 -0.0428968 0.0428968
-0.0109604 -0.00718096 -0.00812582
-0.0132281 0.00113384 -0.00264562
-0.0124722 0.00585815 0.0020787
-0.0105825 0.00151178 0.00151178
-0.00907068 -0.0128501 -0.00585815
-0.0096376 -0.0164406 -0.0103935
-0.00907068 0.0145509 0.00982658
-0.0489439 0.0366607 -0.0510226
0.00453534 0.00453534 0.00264562
0.00585815 0.00302356 0.00302356
0.0062361 0.00453534 0.00359048
0.00302356 -0.00680301 0.0109604
0.00566918 -0.0062361 0.00888171
0.0102045 0.0181414 -0.00321253
0.0096376 0.0177634 -0.00132281
0.00491329 0.00075589 0.00793685
0.00170075 -0.0111494 0.0143619
0.0194642 -0.00812582 0.00850377
0.00529123 0.00283459 0.00396842
0.00642507 0.00869274 0.00491329
-0.0190862 -0.00188973 -0.0257003
-0.00075589 0.0107714 -0.0020787
-0.0651955 0.0421409 -0.0527234
-0.0266451 0.0145509 -0.0230547
0.0869274 -0.0644397 0.0644397
0.048566 -0.0360938 0.0355268
-0.0153068 0.00548021 -0.0020787
-0.0134171 0.0143619 0.00661404
-0.00736993 -0.0194642 -0.00736993
-0.00907068 -0.0245664 -0.0145509
-0.0170075 0.0187083 0.013606
0.0020787 0.0183303 0.0105825
-0.0109604 0.0183303 0.0124722
-0.068786 0.0559359 -0.0735103
0.00151178 0.0939194 -0.123399
-0.151178 0.0168186 -0.0213539
0.0130391 0.0292908 -0.0103935
0.0124722 0.0298577 -0.00718096
0.0041574 -0.0020787 0.0100155
-0.00113384 -0.0224877 0.020409
0.00869274 0.0075589 0.00661404
Vibration 11
-0.00396842 0.0096376 0.0177634
-0.00321253 0.00132281 0.0260782
0.00226767 -0.00321253 0.00264562
0.00793685 0.00472431 -0.0213539
0.00548021 0.0166296 -0.0323143
0.00075589 0.0128501 -0.00869274
-0.00642507 0.020409 -0.0606602
-0.00151178 0.00982658 0.0120942
-0.0041574 0.00699199 0.0393063
-0.00396842 0.00907068 0.0230547
0.00359048 0.0160627 0.0200311
0.00736993 0.0164406 0.0100155
0.00377945 0.0102045 0.00340151
-0.00188973 0.00188973 0.00736993
-0.00548021 0.00283459 0.0175745
0.00680301 0.0130391 -0.0111494
0.0020787 -0.0160627 -0.0020787
0.00359048 -0.0334482 -0.0111494
0.00377945 -0.0298577 -0.0126612
0.00340151 -0.00661404 -0.00453534
0.00132281 -0.00396842 -0.00170075
0.00132281 -0.0107714 -0.00113384
0.00529123 0.0249444 0.0020787
0.0130391 -0.00453534 -0.0132281
-0.0232436 0.0154958 -0.0075589
-0.0149288 -0.000566918 -0.00340151
-0.0109604 0.00132281 -0.0232436
-0.000944863 0.00453534 -0.0170075
0.0336371 -0.0162516 -0.0272121
-0.020787 -0.00188973 -0.0153068
-0.0241885 -0.00264562 -0.000377945
-0.0145509 -0.00226767 0.00661404
-0.00283459 0.0020787 -0.000566918
0.104691 -0.0580146 -0.0398732
-0.0270231 -0.0171965 0.0445975
-0.047999 0.0153068 0.0651955
-0.00907068 -0.00302356 0.047999
-0.0075589 0.0156847 -0.0791795
0.00680301 0.0217318 0.0258892
0.0122832 0.0213539 0.0075589
-0.00396842 -0.00453534 0.00226767
-0.0102045 -0.00245664 0.0198421
0.00472431 -0.048188 -0.0156847
0.0041574 -0.0419519 -0.0185193
-0.000188973 0.0062361 0.00113384
0.000377945 -0.00944863 -0.000188973
-0.00604712 0.0534792 0.0995886
0.020976 0.107714 -0.0587705
0.00264562 -0.0517785 -0.027401
0.0177634 -0.000377945 -0.0234326
0.00793685 -0.0102045 -0.00151178
0.0181414 -0.0143619 -0.0171965
-0.0283459 -0.00396842 -0.0185193
-0.034582 -0.00510226 0.0062361
-0.0170075 -0.00566918 0.0187083
0.00340151 -0.000944863 0.00566918
-0.0255113 0 0.0888171
Vibration 12
0.00302356 0.000188973 -0.0102045
0.00283459 0.00132281 -0.00680301
0.00226767 0.00188973 0.00434637
0.000188973 0.000377945 0.00604712
-0.000188973 -0.00188973 0.00359048
0.00151178 -0.00113384 -0.00226767
0.000188973 -0.00245664 0.00604712
0.00113384 -0.00226767 0.000944863
0.00075589 -0.00340151 0.00472431
0.00283459 0.000944863 -0.0126612
-0.00075589 -0.0020787 -0.0113384
-0.00132281 -0.00321253 -0.00510226
0.00188973 -0.000566918 -0.000566918
0.00321253 0.00434637 -0.00359048
0.00396842 0.00453534 -0.00944863
0.00321253 -0.0041574 0.00982658
0.00283459 0.00132281 0.00850377
0.00377945 0.00548021 0.0096376
0.00340151 -0.00321253 0.00548021
0.00132281 -0.0149288 0.00075589
0 -0.0156847 0.000944863
0.00113384 -0.00736993 0.00491329
0.00132281 -0.00188973 -0.00283459
-0.00226767 0.00736993 0.00925966
0.00132281 -0.00188973 0.000944863
0.000566918 0.00113384 -0.000944863
0.000188973 0.00132281 0.00188973
-0.00075589 0.00264562 -0.000188973
-0.00907068 0.00566918 0.00321253
0.000944863 -0.000944863 0.0020787
0.00132281 -0.00132281 -0.000566918
0.000566918 0.00113384 -0.00321253
-0.000566918 0.00302356 -0.00340151
-0.0313695 0.0158737 0.0062361
0.00226767 0.00377945 -0.00869274
0.00434637 -0.00226767 -0.00925966
0.00359048 0.00188973 -0.0111494
0.000377945 -0.0020787 0.0062361
-0.00283459 -0.00434637 -0.0147399
-0.00359048 -0.0062361 -0.00359048
0.00453534 0.0075589 -0.000944863
0.00604712 0.0075589 -0.0111494
0.00510226 0.0143619 0.0134171
0.00396842 0.000377945 0.00661404
-0.000944863 -0.0221098 -0.00170075
0.000377945 -0.00850377 0.00510226
0.0364717 0.096376 0.454668
-0.00774788 0.368875 -0.3016
-0.0230547 -0.421976 -0.157981
-0.00264562 0.00283459 0.0173855
0 0.00982658 -0.00226767
-0.00812582 0.0166296 0.0132281
0.00170075 -0.00245664 0.00377945
0.00245664 -0.00359048 -0.000377945
0.000944863 0.00151178 -0.00472431
-0.00170075 0.00453534 -0.00510226
0.00151178 0.000377945 -0.0130391
Vibration 13
-0.00113384 -0.000566918 0.0202201
-0.00188973 0.00377945 -0.0020787
-0.0041574 0.00566918 -0.0311805
-0.00340151 0.00453534 -0.0317474
0.000377945 0.00188973 -0.00245664
-0.00113384 0.00075589 0.0096376
0.00907068 -0.00170075 0.0179524
0.000566918 0.00321253 -0.00491329
0.00264562 0.00604712 -0.0260782
0.00548021 -0.00566918 0.0328812
0.0168186 -0.00302356 0.0334482
0.0151178 0.00170075 0.0188973
0.00151178 0.00170075 0.00434637
0.00359048 -0.0115273 0.0141729
0.0041574 -0.0132281 0.027401
-0.0177634 0.0213539 -0.0306136
-0.00548021 -0.00491329 -0.0385504
-0.0194642 0.00113384 -0.0238105
-0.0179524 0.00113384 -0.00264562
-0.00151178 -0.00793685 0.00170075
0.0115273 -0.0328812 -0.0194642
0.00850377 -0.02759 -0.0385504
0.00396842 0.0173855 0.0381725
0.0117163 -0.0153068 -0.0124722
0.00774788 0.00264562 0.00075589
-0.00075589 0.00850377 0.00793685
0.00491329 0.0166296 -0.00302356
-0.00793685 -0.00661404 0.00680301
-0.00680301 0.0130391 -0.00377945
0.0170075 0.034204 -0.0156847
0.00982658 0.0107714 -0.00793685
-0.00831479 -0.0332592 0.0117163
-0.0156847 -0.0368497 0.0173855
-0.00850377 0.0404401 0.00510226
-0.0154958 0.000566918 0.0238105
0.00491329 -0.00472431 -0.00396842
0.00075589 0.00491329 0.00226767
0.00869274 -0.0041574 0.0362827
0.0255113 -0.00170075 0.0432747
0.020787 0.00642507 0.0166296
0.00132281 -0.0177634 0.00888171
0.000944863 -0.0194642 0.0309915
-0.0332592 0.0103935 -0.0268341
-0.0287238 0.0115273 0.0105825
0.0241885 -0.0512116 -0.0196532
0.0190862 -0.0368497 -0.0502667
-0.00661404 0.0298577 0.0706758
0.0376055 0.0402512 0.0313695
-0.0132281 0.00774788 0.0449755
-0.00453534 0.0062361 -0.0417629
0.00944863 -0.0177634 0.047999
0.0487549 -0.0576366 -0.034204
0.0300466 0.0627389 -0.0298577
0.0179524 0.0236216 -0.0170075
-0.0154958 -0.0610381 0.020787
-0.0247554 -0.0593374 0.0270231
-0.0147399 -0.0149288 0.00869274
Vibration 14
-0.00377945 -0.00377945 0.0126612
-0.00396842 0.00359048 -0.0166296
-0.00812582 0.00642507 -0.0255113
-0.00718096 0.00396842 -0.000188973
-0.00132281 -0.00604712 0.0336371
-0.00245664 -0.00359048 0.0268341
0.00491329 -0.0177634 0.0708647
0.000944863 0.0134171 0.000188973
0.00529123 0.0402512 -0.0364717
-0.00226767 -0.00491329 0.0160627
0.000566918 -0.00245664 0.0145509
0.00113384 -0.00113384 0.00831479
-0.00188973 -0.00453534 0.00377945
0 -0.0113384 0.00925966
-0.00151178 -0.0107714 0.0143619
-0.00680301 0.00245664 -0.0115273
-0.00869274 0.0141729 -0.0291018
-0.0221098 0.00850377 -0.020787
-0.0215429 0.000566918 -0.00510226
-0.0062361 0.00113384 0.00226767
0.00907068 0.0183303 -0.00170075
0.00642507 0.0230547 -0.0185193
-0.00491329 -0.0211649 0.0179524
0.000188973 -0.0126612 -0.0107714
0.00283459 -0.00850377 0.013606
-0.00736993 0.00113384 0.0147399
-0.0124722 -0.00944863 0.0194642
-0.0107714 0.0170075 -0.00132281
0.0062361 -0.00113384 -0.00264562
-0.0141729 -0.0334482 0.0287238
-0.00377945 -0.00831479 0.00491329
0.00529123 0.0419519 -0.0266451
0.000377945 0.048188 -0.0260782
0.069164 -0.0508336 -0.0173855
0.00359048 0.00944863 -0.00888171
0.0132281 -0.020409 -0.0374166
0.000188973 0.00642507 -0.0323143
0.00566918 -0.0264562 0.105258
0.00170075 0 0.0170075
0.00264562 0.00245664 0.00604712
0.00113384 -0.0164406 0.00831479
-0.00283459 -0.0145509 0.0168186
-0.034771 0.00793685 -0.0268341
-0.0326923 -0.00699199 0.000188973
0.0219208 0.0258892 0.00699199
0.0179524 0.0330702 -0.0236216
0.0181414 -0.0192752 0.0642507
-0.00831479 0.00774788 -0.0062361
-0.0226767 -0.068975 0.0096376
-0.0062361 -0.00113384 -0.02759
0.00113384 -0.0117163 0.0130391
0.0103935 -0.034393 -0.0188973
-0.0213539 -0.0670853 0.0514005
-0.00226767 -0.0243775 0.00982658
0.0151178 0.0723765 -0.0487549
0.00188973 0.0731324 -0.0438416
-0.0160627 -0.0149288 -0.047999
Vibration 15
0.00982658 -0.00264562 0.00585815
0.0105825 -0.00793685 0.0113384
0.0173855 -0.0109604 0.0115273
0.0179524 -0.0096376 0.0119053
0.0202201 -0.00907068 0.0247554
0.0145509 -0.00264562 0.0170075
0.0188973 -0.0126612 0.0315584
0.0168186 0.0355268 0.0115273
0.0194642 0.103179 0.00944863
-0.00113384 0.00642507 -0.00869274
-0.0134171 0.0141729 -0.0173855
-0.013795 0.013606 -0.0143619
0.00075589 0.0062361 -0.00188973
-0.00151178 0.00982658 -0.00510226
-0.00151178 0.0096376 -0.0075589
0.0222988 -0.0107714 0.020976
0.0181414 -0.0198421 0.00642507
0.0253223 -0.0226767 0
0.0253223 -0.0168186 -0.00453534
0.0213539 -0.00831479 -0.00359048
0.013795 -0.0213539 -0.00340151
0.013984 -0.0257003 0.00226767
0.0226767 0.020409 -0.00132281
-0.00113384 0.0103935 0.00132281
-0.00170075 -0.00170075 -0.00680301
-0.0192752 0.0154958 0.00170075
-0.0128501 0.0217318 -0.0177634
-0.0179524 0.0215429 -0.0221098
-0.0147399 0.00434637 -0.0154958
-0.0134171 0.000188973 -0.00982658