[Molden Format]
[FREQ]
17.1
22.9
30.1
31.2
35.3
41.7
47.1
56.1
60.5
74.8
78.3
80.6
89.8
111.1
119.9
131.0
137.2
147.6
155.0
171.8
179.5
211.6
215.5
223.0
243.6
260.4
264.1
274.0
312.6
324.8
337.7
348.3
353.8
358.0
367.4
397.4
423.6
430.1
457.0
469.3
470.3
492.3
507.9
526.7
540.0
541.9
551.1
565.2
572.8
581.9
588.7
599.1
614.4
620.0
628.7
635.4
653.1
659.5
687.2
696.5
719.1
731.6
757.8
769.7
788.5
824.4
827.9
862.4
881.1
883.7
884.0
892.9
904.1
933.6
958.9
962.9
1001.9
1005.2
1007.0
1008.5
1013.7
1016.8
1024.3
1035.3
1042.7
1067.7
1074.1
1081.7
1096.3
1108.4
1126.7
1158.4
1175.0
1178.7
1183.9
1184.9
1187.0
1196.0
1211.2
1240.0
1256.7
1261.4
1263.3
1268.5
1271.2
1282.5
1285.3
1292.8
1293.9
1301.5
1321.9
1336.5
1340.5
1343.2
1349.0
1351.3
1353.9
1363.0
1373.4
1381.9
1393.9
1408.3
1429.4
1470.9
1495.0
1511.9
1521.9
1527.9
1531.9
1553.1
1559.7
1580.5
1592.6
1607.0
1636.5
1671.9
1682.3
1696.8
1698.2
1705.5
1707.9
1709.7
1884.5
2452.1
2651.7
2653.5
2664.7
2674.5
2743.1
2744.1
2744.9
2745.0
2746.5
2746.9
2747.7
2748.1
2749.0
2757.8
2760.9
2763.5
2764.1
2768.4
2771.0
2777.6
2779.5
       
[FR-COORD]
C -2.94193 -2.39504 -0.794819
C -0.310671 -2.39504 -0.794819
C 1.05787 -0.144186 -0.794819
N -0.17839 2.14786 -0.651955
C -2.81834 2.19114 -0.673309
C -4.21371 -0.0655735 -0.815417
N -3.94499 4.56482 -0.477156
C -6.88408 0.0340151 -0.972453
N -9.06558 0.120753 -1.11513
C -4.31595 -4.79272 -0.796708
C -3.93894 -6.51748 -2.77298
C -5.20865 -8.80423 -2.79018
C -6.86764 -9.36359 -0.789905
C -7.25711 -7.67342 1.19676
C -5.97002 -5.37948 1.1722
O -7.97332 -11.6619 -1.03311
C 3.82292 -0.197476 -1.00382
C 5.23889 -1.54334 0.772331
C 7.86239 -1.56772 0.610004
C 9.08316 -0.252656 -1.32697
C 7.65679 1.04842 -3.13203
C 5.0365 1.08489 -2.97008
C 11.8943 -0.178012 -1.44281
C -9.77744 -12.3703 0.8277
C -2.59384 6.79602 -1.09321
C 2.22534 1.89048 4.13491
C 3.88584 3.89076 3.18135
C 3.19118 5.14043 0.938249
C 1.03236 4.43878 -0.528556
C 6.08341 4.62926 4.45597
C 7.5555 6.60799 3.56516
C 6.81152 7.9085 1.38649
C 4.65458 7.19456 0.0857936
O -0.151367 6.34362 -1.85722
O 3.00164 1.04011 6.34778
O -3.57366 8.83504 -1.08092
H 0.71923 -4.18555 -0.823732
H 1.86629 -0.254357 7.05265
H -2.6494 -6.0441 -4.31217
H -4.95618 -10.1635 -4.31122
H -8.53816 -8.10976 2.73651
H -6.25594 -4.03457 2.71043
H 4.29024 -2.53545 2.30925
H 8.96297 -2.59195 2.01199
H 8.60165 2.06396 -4.65043
H 3.92874 2.14843 -4.34769
H 12.7812 -1.79505 -0.491518
H 12.6105 1.54372 -0.511738
H 12.6052 -0.15458 -3.39357
H -10.4063 -14.2259 0.137761
H -11.3627 -11.0419 0.869274
H -8.88795 -12.5546 2.68473
H 6.62689 3.63035 6.17827
H 9.26589 7.1579 4.5567
H 7.94743 9.48605 0.704868
H 4.07954 8.19914 -1.61817
H -5.83472 4.68255 -0.140029

[FR-NORM-COORD]
Vibration 1
0.00113384 0.00604712 -0.0145509
0.000944863 0.00453534 -0.0170075
0.00170075 0.0041574 -0.0166296
0.00226767 0.00396842 -0.0132281
0.00245664 0.0062361 -0.0188973
0.00170075 0.00661404 -0.0190862
0.0041574 0.00718096 -0.0251334
0.0020787 0.00718096 -0.0226767
0.00226767 0.00774788 -0.0258892
0.000377945 0.00642507 -0.00377945
-0.00604712 -0.000566918 0.00132281
-0.00340151 -0.00226767 0.0158737
0.0062361 0.00340151 0.0255113
0.0111494 0.0117163 0.0192752
0.00793685 0.0132281 0.00472431
0.0100155 0 0.0406291
0.00151178 0.00585815 -0.0194642
0.00472431 0.00188973 -0.0251334
0.00472431 0.00604712 -0.0272121
0.00132281 0.0143619 -0.0238105
-0.00170075 0.0173855 -0.0188973
-0.00170075 0.0130391 -0.0168186
0.00113384 0.0196532 -0.0247554
0.0268341 0.000566918 0.0572587
0.00982658 0.00699199 -0.0151178
-0.0236216 -0.0281569 -0.00831479
-0.0170075 -0.0239995 0.0134171
-0.00377945 -0.00812582 0.0177634
0.00434637 0.00245664 0.00132281
-0.0224877 -0.0357158 0.0294797
-0.0145509 -0.0323143 0.0500777
-0.00170075 -0.0166296 0.054991
0.00359048 -0.00434637 0.0393063
0.0147399 0.00812582 0.000566918
-0.0425188 -0.0362827 -0.00472431
0.00982658 0.00699199 -0.020598
0.000188973 0.0041574 -0.0175745
-0.047999 -0.0396842 -0.0198421
-0.0130391 -0.00529123 -0.00585815
-0.00812582 -0.00812582 0.020409
0.0171965 0.0166296 0.0258892
0.0120942 0.0194642 0
0.00736993 -0.00434637 -0.02759
0.00736993 0.00321253 -0.0315584
-0.00453534 0.0236216 -0.0166296
-0.0041574 0.0158737 -0.0128501
0.0041574 0.0132281 -0.0387394
-0.000944863 0.0130391 -0.0109604
0.000188973 0.0370386 -0.0249444
0.0338261 -0.00774788 0.0731324
0.0188973 -0.00869274 0.0585815
0.0394953 0.0177634 0.0527234
-0.0325033 -0.048188 0.0255113
-0.0183303 -0.0423299 0.061983
0.00453534 -0.0141729 0.0710537
0.013984 0.00774788 0.0430858
0.00226767 0.00925966 -0.0359048
Vibration 2
-0.0160627 0.0160627 -0.0126612
-0.0160627 0.0120942 -0.0102045
-0.0120942 0.00944863 -0.00340151
-0.00812582 0.0115273 -0.00226767
-0.00850377 0.0151178 -0.0020787
-0.0122832 0.0177634 -0.00736993
-0.00491329 0.0166296 0.00566918
-0.0122832 0.0217318 -0.00585815
-0.0122832 0.0247554 -0.00434637
-0.013984 0.0147399 -0.0164406
-0.0179524 0.0222988 -0.0238105
-0.000566918 0.0128501 -0.0183303
0.0211649 -0.00453534 -0.00491329
0.0188973 -0.00850377 -0.00226767
0.000944863 0.00170075 -0.00793685
0.0436527 -0.0164406 0.00340151
-0.0117163 0 0.00453534
-0.0243775 -0.0107714 0.00661404
-0.0241885 -0.0291018 0.0117163
-0.0115273 -0.0366607 0.0147399
0.00113384 -0.0226767 0.0149288
0.000944863 -0.00434637 0.00982658
-0.0107714 -0.0599043 0.0173855
0.0901399 -0.0498888 0.0353379
-0.00188973 0.0160627 0.0115273
-0.00548021 0.00982658 -0.000566918
0.000188973 0.00321253 -0.00510226
0.000944863 0.00321253 -0.00529123
-0.00453534 0.00888171 -0.00075589
0.00472431 -0.00283459 -0.0096376
0.0100155 -0.00869274 -0.0141729
0.0107714 -0.00850377 -0.0141729
0.0062361 -0.00283459 -0.0100155
-0.00396842 0.013984 0.00604712
-0.00585815 0.0109604 0
0.00245664 0.0181414 0.020598
-0.0192752 0.0102045 -0.0132281
-0.00925966 0.0156847 0.00340151
-0.0328812 0.034771 -0.0325033
-0.00188973 0.0173855 -0.0226767
0.0311805 -0.0192752 0.00491329
0.000188973 -0.00188973 -0.00510226
-0.034393 -0.00585815 0.00377945
-0.034204 -0.0383614 0.0128501
0.0113384 -0.0272121 0.0183303
0.0109604 0.00566918 0.00944863
-0.0243775 -0.0576366 0.0338261
0.0020787 -0.0566918 0.00132281
-0.00888171 -0.0848487 0.0177634
0.118486 -0.0653845 0.0510226
0.0627389 -0.0833369 0.0570697
0.123588 -0.0260782 0.0217318
0.0041574 -0.00283459 -0.00925966
0.0132281 -0.0132281 -0.0173855
0.0145509 -0.0126612 -0.0175745
0.00661404 -0.00245664 -0.0100155
-0.00434637 0.0183303 0.0075589
Vibration 3
-0.000188973 -0.00245664 -0.00944863
-0.000188973 -0.00075589 -0.00510226
-0.00188973 -0.000188973 -0.00340151
-0.00283459 -0.000188973 -0.00075589
-0.00340151 -0.00264562 -0.00264562
-0.00113384 -0.00264562 -0.0119053
-0.00585815 -0.0041574 0.0102045
-0.000566918 -0.00340151 -0.0232436
0 -0.00359048 -0.0336371
0.00075589 -0.00302356 -0.00718096
0.0134171 -0.0132281 0.00434637
0.0153068 -0.0145509 0.00925966
0.00396842 -0.00510226 0.00226767
-0.00944863 0.00548021 -0.00925966
-0.0105825 0.00604712 -0.013984
0.00774788 -0.00774788 0.00907068
-0.0020787 0.00396842 -0.00510226
0.00377945 0.0241885 0.00529123
0.0041574 0.0362827 0.00604712
-0.0020787 0.027779 -0.00359048
-0.00812582 0.00340151 -0.0164406
-0.00831479 -0.00831479 -0.0170075
-0.00245664 0.0457314 0
-0.00699199 0.00396842 -0.00075589
-0.00661404 0.000944863 0.0313695
-0.0236216 0.0188973 0.0198421
0.000566918 -0.0075589 0.00264562
0.0115273 -0.0160627 -0.00529123
-0.00396842 -0.00226767 0.00831479
0.013606 -0.0272121 -0.00925966
0.0377945 -0.0542351 -0.0302356
0.048188 -0.0604712 -0.0370386
0.0338261 -0.041385 -0.0247554
-0.00585815 0.00982658 0.02759
-0.062172 0.0659514 0.0508336
-0.0062361 0.00113384 0.0496998
0.00132281 0 -0.00302356
-0.0776677 0.0854156 0.061983
0.0219208 -0.020409 0.00925966
0.0255113 -0.0222988 0.0179524
-0.0183303 0.0128501 -0.0145509
-0.020598 0.013795 -0.0224877
0.00793685 0.0315584 0.0126612
0.00907068 0.0532903 0.0145509
-0.0130391 -0.00566918 -0.0253223
-0.013606 -0.0268341 -0.0268341
0.00642507 0.0517785 0.0020787
-0.0151178 0.0508336 0.000377945
0.000566918 0.0496998 0.00113384
-0.00170075 -0.000377945 0.00566918
-0.00718096 0.00434637 -0.0213539
-0.0215429 0.0153068 0.00736993
0.00472431 -0.0198421 -0.00245664
0.048377 -0.0699199 -0.0396842
0.0661404 -0.0799354 -0.0521564
0.0402512 -0.0457314 -0.0294797
-0.00642507 -0.00831479 0.00812582
Vibration 4
-0.00510226 0.00736993 0.013795
-0.00472431 0.00736993 0.0175745
-0.00377945 0.00661404 0.0122832
-0.00302356 0.00699199 0.00831479
-0.00283459 0.00793685 0.00642507
-0.00396842 0.00812582 0.00793685
-0.00132281 0.00907068 0.000377945
-0.00340151 0.0113384 0.00113384
-0.00283459 0.0149288 -0.00472431
-0.000377945 0.00491329 0.0103935
0.0538572 -0.0168186 0.0391173
0.0665184 -0.0236216 0.0362827
0.0222988 -0.00869274 0.00396842
-0.034204 0.013606 -0.0262672
-0.0447865 0.0196532 -0.0224877
0.0428968 -0.0187083 0.00661404
-0.00453534 0.00245664 0.00377945
-0.00075589 -0.00434637 -0.0041574
-0.0020787 -0.0192752 -0.020598
-0.00680301 -0.0272121 -0.0291018
-0.0105825 -0.0154958 -0.0175745
-0.00925966 -0.000566918 -0.000944863
-0.00699199 -0.0502667 -0.0514005
-0.0102045 0.000944863 -0.0372276
0.000566918 0.00699199 -0.00340151
0.00113384 -0.000566918 0.00264562
-0.00188973 0.00321253 0.00642507
-0.00283459 0.0062361 0.00812582
-0.00132281 0.00661404 0.00642507
-0.00264562 0.00321253 0.00774788
-0.0041574 0.00585815 0.0111494
-0.00510226 0.00850377 0.0130391
-0.0041574 0.00869274 0.0115273
0.00151178 0.00491329 0.00132281
-0.00831479 0.00888171 0.0096376
0.00075589 0.00718096 -0.0102045
-0.00491329 0.00718096 0.0234326
-0.00718096 0.00642507 0.00661404
0.0867384 -0.0281569 0.0631168
0.109226 -0.0400622 0.0582036
-0.068786 0.0257003 -0.0515895
-0.0880612 0.0355268 -0.0442196
0.00321253 0.000944863 0.00170075
0.000944863 -0.0257003 -0.027779
-0.0141729 -0.0190862 -0.0222988
-0.0117163 0.00793685 0.00736993
-0.0132281 -0.0625499 -0.0665184
0.0153068 -0.0608492 -0.0487549
-0.0224877 -0.0466762 -0.0568808
0.0141729 -0.00944863 -0.0317474
-0.0143619 -0.0020787 -0.0999665
-0.0638727 0.0266451 -0.00888171
-0.0020787 0.000944863 0.0062361
-0.00472431 0.00566918 0.0120942
-0.00604712 0.0103935 0.0154958
-0.00453534 0.0107714 0.0128501
-0.00188973 0.0111494 -0.00264562
Vibration 5
-0.00642507 0.000566918 -0.020787
-0.00604712 0.00113384 -0.0166296
-0.00566918 0.00075589 -0.00982658
-0.00529123 0.00113384 -0.00359048
-0.00548021 0.000188973 -0.00831479
-0.00529123 0.00113384 -0.0234326
-0.00774788 -0.00188973 0.00774788
-0.0041574 0.00377945 -0.0425188
-0.00283459 0.00699199 -0.0604712
-0.0062361 0.00075589 -0.0130391
0.0158737 -0.0226767 0.0115273
0.0196532 -0.0249444 0.0266451
0.000188973 -0.00340151 0.0164406
-0.0245664 0.020976 -0.00925966
-0.0272121 0.0222988 -0.0238105
0.00869274 -0.0096376 0.0355268
-0.00529123 0.000377945 -0.0020787
-0.0117163 -0.00888171 -0.00396842
-0.0105825 -0.0020787 0.0100155
-0.00302356 0.0141729 0.0260782
0.00359048 0.0194642 0.0245664
0.00264562 0.0122832 0.0103935
-0.00264562 0.0272121 0.0455424
-0.0130391 0.0132281 0.0234326
-0.00869274 0.00302356 0.0268341
0.0224877 -0.0141729 -0.0096376
0.0141729 -0.0075589 -0.0111494
0.000188973 -0.00151178 -0.00321253
-0.00661404 0.000566918 0.00491329
0.0181414 -0.00604712 -0.0190862
0.00907068 0.000566918 -0.0192752
-0.00359048 0.00491329 -0.0122832
-0.00774788 0.00377945 -0.00453534
-0.0105825 0.00736993 0.0171965
0.0668963 -0.0582036 -0.0417629
-0.00642507 0.00396842 0.0487549
-0.00604712 0.00113384 -0.0171965
0.075778 -0.0646286 -0.0398732
0.0302356 -0.0391173 0.0185193
0.0376055 -0.0430858 0.0459203
-0.0406291 0.0385504 -0.0177634
-0.0451645 0.0402512 -0.0427078
-0.0171965 -0.020787 -0.0151178
-0.0160627 -0.00869274 0.0096376
0.00944863 0.0300466 0.0353379
0.0075589 0.0164406 0.0096376
-0.00113384 0.034582 0.0566918
-0.0177634 0.0334482 0.0455424
0.0105825 0.0249444 0.0504557
0.000566918 0.00132281 0.0430858
-0.0168186 0.0100155 -0.0162516
-0.0360938 0.0428968 0.0376055
0.0285349 -0.0102045 -0.0245664
0.0117163 0.00226767 -0.0249444
-0.0102045 0.0096376 -0.0130391
-0.0175745 0.0075589 0.000944863
-0.0075589 -0.00585815 0.00982658
Vibration 6
-0.0164406 0.00680301 0.0115273
-0.0156847 -0.00113384 -0.00226767
-0.00869274 -0.00604712 -0.00680301
-0.00151178 -0.00226767 -0.00548021
-0.00075589 0.00699199 0.00699199
-0.00944863 0.0103935 0.0247554
0.0100155 0.0128501 -0.00377945
-0.0109604 0.020787 0.0580146
-0.0126612 0.0306136 0.0890061
-0.0168186 0.00699199 0.00566918
0.00888171 0.00340151 0.0128501
0.020976 -0.00283459 0.00680301
0.00566918 -0.00642507 -0.00661404
-0.0245664 -0.00113384 -0.0171965
-0.0355268 0.00548021 -0.0107714
0.0247554 -0.0153068 -0.00869274
-0.00869274 -0.00869274 -0.00774788
-0.00850377 0.00132281 -0.000566918
-0.00736993 0.0213539 0.013606
-0.00680301 0.0311805 0.020598
-0.00736993 0.0113384 0.00661404
-0.00831479 -0.00869274 -0.00774788
-0.00680301 0.0661404 0.0449755
0.0194642 -0.0260782 -0.0181414
0.0164406 0.00377945 -0.0258892
-0.00812582 -0.00774788 -0.0122832
-0.000188973 -0.013984 -0.0100155
0.00585815 -0.0102045 -0.0100155
0.00774788 -0.00548021 -0.0141729
0.00170075 -0.0228657 -0.00793685
0.00944863 -0.027779 -0.00548021
0.0151178 -0.0230547 -0.00491329
0.0134171 -0.013984 -0.00680301
0.0145509 -0.00869274 -0.0239995
0 -0.0298577 -0.0234326
0.0217318 0.00642507 -0.0432747
-0.020976 -0.0041574 -0.00850377
-0.00566918 -0.0260782 -0.0257003
0.020598 0.00566918 0.0232436
0.0423299 -0.00566918 0.0128501
-0.0391173 -0.0020787 -0.0294797
-0.0583925 0.00812582 -0.0173855
-0.00888171 -0.00396842 -0.0041574
-0.00699199 0.0319364 0.0211649
-0.00699199 0.013984 0.00850377
-0.00925966 -0.0215429 -0.0168186
0.00566918 0.0816362 0.0593374
-0.0377945 0.0793685 0.0445975
0.0102045 0.0678412 0.0512116
0.0445975 -0.0362827 -0.013795
0.00491329 -0.0428968 -0.0360938
0.00774788 -0.00774788 -0.0107714
-0.00321253 -0.0262672 -0.00831479
0.0109604 -0.034771 -0.0041574
0.020976 -0.0262672 -0.00245664
0.0177634 -0.0103935 -0.0062361
0.0115273 0.0234326 0.00113384
Vibration 7
0.0109604 -0.0020787 -0.0219208
0.0109604 0.00188973 -0.0434637
0.00869274 0.00359048 -0.0379835
0.0062361 0.00113384 -0.0279679
0.00604712 -0.00226767 -0.00529123
0.00736993 -0.00359048 0.000377945
0.00453534 -0.00529123 0.0173855
0.00529123 -0.00585815 0.0353379
0.00321253 -0.00793685 0.0663294
0.013606 -0.00340151 -0.0117163
0.0160627 -0.0153068 -0.00075589
0.0134171 -0.013984 0.0096376
0.00718096 0 0.00831479
0.00736993 0.0103935 -0.000377945
0.0109604 0.00793685 -0.0100155
0.00151178 0.00170075 0.0183303
0.00982658 0.00245664 -0.0245664
-0.0075589 -0.0168186 -0.0247554
-0.00680301 -0.0262672 -0.00566918
0.0124722 -0.0154958 0.013606
0.0304246 0.0062361 0.0151178
0.0289128 0.0153068 -0.00396842
0.013606 -0.0283459 0.0334482
-0.0262672 0.0294797 0.00226767
-0.00302356 0.00151178 0.0226767
-0.0202201 0 -0.0289128
-0.0153068 0.00170075 -0.0162516
-0.00434637 0.00453534 -0.0183303
0.00321253 0.00396842 -0.0291018
-0.0230547 0.00170075 -0.00359048
-0.020787 0.00510226 0.00736993
-0.0107714 0.00831479 0.00585815
-0.00283459 0.00774788 -0.00699199
-0.0120942 0.00604712 -0.0111494
-0.0508336 0.0173855 -0.0119053
-0.00396842 0.000566918 0.0555579
0.0128501 0.00340151 -0.0582036
-0.0568808 0.0173855 -0.0211649
0.0194642 -0.0255113 -0.000944863
0.0151178 -0.0228657 0.0179524
0.00510226 0.0198421 0.000377945
0.0115273 0.0154958 -0.0164406
-0.0226767 -0.0251334 -0.0393063
-0.0211649 -0.0425188 -0.0062361
0.0455424 0.0158737 0.0309915
0.0432747 0.0319364 -0.00264562
0.000377945 -0.0266451 0.0487549
0.0147399 -0.0260782 0.0285349
0.0268341 -0.0427078 0.0379835
-0.0374166 0.0323143 0.00491329
-0.013606 0.0455424 -0.0217318
-0.047999 0.0304246 0.0126612
-0.0308025 -0.00075589 -0.00245664
-0.0264562 0.00510226 0.0171965
-0.00907068 0.0109604 0.0149288
0.0041574 0.00982658 -0.00831479
0.00793685 -0.00944863 0.0379835
Vibration 8
-0.00302356 -0.00340151 -0.00736993
-0.00226767 -0.0100155 -0.00680301
0.00226767 -0.0134171 -0.00661404
0.00869274 -0.0107714 -0.00491329
0.00869274 -0.00396842 0.00472431
0.00302356 -0.000377945 -0.00170075
0.0160627 -0.00226767 0.0224877
0.00340151 0.00944863 -0.00302356
0.00396842 0.0194642 -0.00510226
-0.00888171 -0.000188973 -0.0100155
-0.00529123 -0.00472431 -0.00529123
-0.00585815 -0.00453534 -0.00302356
-0.00982658 -0.000188973 -0.00491329
-0.0175745 0.00661404 -0.0122832
-0.0171965 0.00642507 -0.0149288
-0.00604712 -0.00245664 0.000188973
0.00245664 -0.0143619 -0.0075589
0.00793685 0.0355268 0.0255113
0.00793685 0.0438416 0.0257003
0.00132281 -0.00075589 -0.00888171
-0.00491329 -0.0542351 -0.0425188
-0.00491329 -0.0591484 -0.0410071
0.000944863 0.0102045 -0.0103935
0.0147399 -0.0126612 0.0164406
0.0183303 -0.00340151 0.0217318
-0.00642507 0.00850377 -0.000188973
-0.0075589 0.0107714 0.0041574
0.00434637 -0.00264562 -0.00699199
0.0143619 -0.0120942 -0.0173855
-0.0247554 0.0319364 0.0217318
-0.0302356 0.0383614 0.027401
-0.0162516 0.0211649 0.0122832
0.00151178 0.000188973 -0.00529123
0.00604712 -0.0154958 -0.013984
0.00359048 -0.0096376 -0.0103935
0.0298577 0.00170075 0.0521564
-0.0062361 -0.0120942 -0.00642507
0.00302356 -0.0100155 -0.0126612
-0.00132281 -0.00907068 -0.00321253
-0.00226767 -0.00831479 0.000944863
-0.0238105 0.0120942 -0.0158737
-0.0226767 0.0109604 -0.0198421
0.0120942 0.0693529 0.0500777
0.0130391 0.0859825 0.0525344
-0.00982658 -0.0912738 -0.0702978
-0.0103935 -0.0984547 -0.0663294
0.00888171 0.0374166 0.0289128
-0.00793685 0.0360938 -0.0512116
0.00170075 -0.0330702 -0.0105825
0.0292908 -0.0226767 0.0296687
0.00151178 -0.0287238 0.020787
0.0291018 0.00510226 0.0115273
-0.0340151 0.0430858 0.0313695
-0.0444086 0.0559359 0.0423299
-0.0194642 0.0245664 0.0149288
0.0119053 -0.013606 -0.0170075
0.0200311 0.00151178 0.0423299
Vibration 9
-0.00699199 -0.00642507 -0.00396842
-0.00642507 -0.013606 -0.00359048
0.00075589 -0.0175745 -0.000188973
0.00604712 -0.0151178 0.00548021
0.00680301 -0.00718096 0.00869274
-0.000188973 -0.00283459 0.00132281
0.0143619 -0.00453534 0.0164406
0.00075589 0.00869274 -0.00491329
0.00151178 0.020787 -0.0115273
-0.0151178 -0.00188973 -0.00888171
-0.0096376 -0.00736993 -0.00321253
-0.0119053 -0.00604712 -0.00264562
-0.0190862 -0.000566918 -0.00699199
-0.0302356 0.00774788 -0.0164406
-0.0285349 0.00680301 -0.0175745
-0.0151178 -0.00283459 -0.00264562
0.000188973 -0.0181414 -0.00642507
0.00472431 -0.0438416 -0.0296687
0.00510226 -0.0311805 -0.0298577
0.00113384 0.0096376 -0.00453534
-0.00340151 0.0313695 0.0145509
-0.00340151 0.0160627 0.0132281
0.00075589 0.0317474 0.00321253
0.0217318 -0.0232436 0.0253223
0.0168186 -0.00925966 0.00170075
0.0379835 -0.0222988 -0.00491329
0.0164406 -0.00396842 -0.00226767
0.00548021 -0.00642507 0
0.0109604 -0.0153068 -0.0020787
0.00982658 0.013984 -0.000377945
-0.00793685 0.0292908 0.00434637
-0.0194642 0.0266451 0.00661404
-0.0117163 0.00869274 0.00453534
0.0105825 -0.0222988 -0.0117163
-0.0103935 0.0566918 0.0423299
0.0238105 -0.0062361 0.00396842
-0.0119053 -0.0166296 -0.00699199
0.00075589 0.0462983 0.041196
-0.0020787 -0.0130391 0.00113384
-0.00661404 -0.0102045 0.00188973
-0.0406291 0.0151178 -0.0226767
-0.0368497 0.0122832 -0.0238105
0.00831479 -0.0736993 -0.0470542
0.00869274 -0.0519675 -0.047999
-0.00718096 0.0616051 0.0325033
-0.00718096 0.0334482 0.0291018
0.00944863 0.0117163 -0.0389284
-0.0132281 0.0113384 0.0519675
0.00529123 0.0903289 0.00566918
0.0438416 -0.0376055 0.0436527
0.000566918 -0.0489439 0.0377945
0.047999 0.00151178 0.0153068
0.0181414 0.0156847 -0.0020787
-0.013606 0.0434637 0.0062361
-0.0336371 0.0385504 0.0100155
-0.0198421 0.00661404 0.00604712
0.0162516 0.00075589 0.0257003
Vibration 10
-0.00075589 0.000944863 0.0117163
-0.000377945 -0.000944863 0.0153068
0.00075589 -0.0020787 0.00680301
0.00151178 -0.000944863 -0.00151178
0.00170075 0.00075589 0.00245664
0.000377945 0.00113384 0.00453534
0.00396842 0.00170075 0.00585815
0.000944863 0.00302356 -0.00359048
0.00170075 0.00491329 -0.0124722
-0.000566918 0.00075589 0.0103935
-0.000944863 0.00548021 0.00604712
0.000566918 0.00472431 0.00151178
0.00245664 -0.000944863 0.00151178
0.00321253 -0.00604712 0.00585815
0.00151178 -0.00472431 0.0103935
0.00377945 -0.000944863 -0.00434637
0.00075589 -0.00170075 0.00510226
0.00434637 -0.00264562 0.0020787
0.00340151 -0.00151178 -0.00264562
0.000566918 0.00188973 -0.00321253
-0.00226767 0.0041574 0.00170075
-0.00245664 0.000944863 0.00529123
0.000944863 -0.00264562 0.00226767
0.00245664 -0.00585815 -0.0075589
0.00491329 0.00113384 0.00642507
-0.0291018 0.0249444 0.000944863
-0.0145509 0.0126612 -0.000188973
0.00113384 0.00151178 -0.0113384
0.00359048 -0.00113384 -0.0145509
-0.0196532 0.013984 0.00718096
-0.00831479 0.00302356 0.00151178
0.0096376 -0.0107714 -0.0128501
0.013606 -0.0113384 -0.0194642
-0.00132281 -0.00453534 -0.0134171
-0.00396842 -0.0211649 -0.0257003
0.0113384 0.00396842 0.0238105
-0.00188973 -0.00188973 0.0224877
-0.0120942 -0.0145509 -0.0264562
-0.00245664 0.0100155 0.0062361
0.000377945 0.00850377 -0.00188973
0.00491329 -0.0107714 0.00604712
0.00170075 -0.00850377 0.0134171
0.00736993 -0.00359048 0.00340151
0.0075589 -0.0020787 -0.0062361
-0.00699199 0.00850377 0.00170075
-0.00491329 0.00188973 0.00774788
-0.0194642 -0.201067 -0.315017
0.0196532 -0.192941 0.340151
0.0041574 0.374166 0.00831479
0.00170075 -0.00321253 -0.0141729
0.00302356 -0.00529123 -0.00396842
0.00151178 -0.0124722 -0.00774788
-0.0323143 0.0236216 0.0168186
-0.0122832 0.00472431 0.0075589
0.0200311 -0.020598 -0.0185193
0.0260782 -0.0217318 -0.0296687
0.00604712 0.00302356 0.0162516
Vibration 11
0.0132281 -0.0062361 -0.0202201
0.0126612 0.00245664 -0.0241885
0.00585815 0.00736993 -0.00774788
0 0.00359048 0.0020787
-0.000566918 -0.00529123 -0.00359048
0.00680301 -0.00850377 -0.00510226
-0.0103935 -0.0096376 -0.00812582
0.00491329 -0.0179524 0.0183303
0.00283459 -0.02759 0.0438416
0.0096376 -0.00359048 -0.0213539
0.0187083 -0.0202201 -0.00472431
0.00188973 -0.0113384 -0.00226767
-0.0226767 0.013606 -0.0156847
-0.0340151 0.0315584 -0.0328812
-0.0173855 0.0213539 -0.0357158
-0.0410071 0.0222988 -0.0122832
0.00680301 0.0134171 0.000566918
0.00359048 0.0253223 0.0122832
0.00340151 0.0177634 0.0130391
0.00680301 -0.00302356 0.000944863
0.0105825 -0.00831479 -0.00548021
0.0102045 0.000377945 -0.00529123
0.00736993 -0.0236216 -0.00359048
0.0311805 -0.00453534 0.0476211
-0.0177634 -0.00510226 -0.00642507
0.00302356 0.00453534 0.0175745
0.00283459 0.00170075 0.0100155
-0.00321253 0.00302356 0.0126612
-0.00869274 0.00585815 0.0188973
0.00944863 -0.00283459 0.00151178
0.0103935 -0.00585815 -0.0041574
0.00377945 -0.00340151 -0.000377945
-0.00321253 0.00132281 0.00831479
-0.00661404 0.0119053 0.0239995
0.0175745 -0.00188973 0.0103935
-0.0332592 -0.0120942 -0.0315584
0.0192752 0.00642507 -0.0359048
0.0196532 -0.000188973 0.0166296
0.0389284 -0.0408181 0.00604712
0.00869274 -0.0238105 0.0100155
-0.0572587 0.0542351 -0.0457314
-0.0257003 0.034582 -0.048566
0.000566918 0.0391173 0.0194642
0.000944863 0.0264562 0.0213539
0.0128501 -0.020787 -0.0122832
0.0132281 -0.00510226 -0.0117163
-0.00718096 -0.0736993 -0.0746442
0.0260782 -0.0706758 0.068786
0.00434637 0.0531013 -0.00359048
0.0504557 -0.0228657 0.0791795
0.00434637 -0.0376055 0.0842818
0.0890061 0.0270231 0.0230547
0.0141729 -0.00377945 -0.000566918
0.0156847 -0.0100155 -0.0111494
0.00396842 -0.00548021 -0.00453534
-0.00793685 0.00340151 0.0111494
-0.013795 -0.0168186 -0.0230547
Vibration 12
-0.00793685 0.00302356 -0.0222988
-0.00831479 0.00132281 -0.02759
-0.00699199 0.000377945 -0.0141729
-0.00396842 0.00075589 -0.00170075
-0.00434637 0.00264562 -0.00642507
-0.00642507 0.0041574 -0.0105825
-0.00302356 0.00340151 -0.00736993
-0.00699199 0.00661404 0.00264562
-0.00793685 0.00888171 0.0162516
-0.00529123 0.00132281 -0.0181414
-0.0145509 0.00113384 -0.0196532
-0.00340151 -0.00529123 -0.00566918
0.0156847 -0.0102045 0.00869274
0.0241885 -0.00925966 0.00944863
0.013795 -0.00377945 -0.00359048
0.0300466 -0.0192752 0.0270231
-0.00699199 -0.00264562 -0.0109604
-0.0117163 0.0166296 0.00774788
-0.0115273 0.0175745 0.0160627
-0.00736993 -0.00321253 0.00396842
-0.00302356 -0.0268341 -0.0160627
-0.00377945 -0.0253223 -0.0228657
-0.00680301 -0.00132281 0.0181414
-0.027401 0.020787 -0.0132281
0.000188973 0.00264562 -0.00453534
0.0423299 -0.034582 -0.00264562
0.020787 -0.0162516 -0.00170075
0.00075589 -0.00510226 0.0107714
-0.00245664 -0.00132281 0.0145509
0.0236216 -0.0117163 -0.00831479
0.00585815 0.00491329 0
-0.0158737 0.0181414 0.0151178
-0.0171965 0.0126612 0.020787
0.00529123 0.00453534 0.0141729
0.0124722 0.0264562 0.0317474
-0.00188973 0.00170075 -0.0179524
-0.00888171 0.000944863 -0.0383614
0.0249444 0.0170075 0.0340151
-0.0302356 0.00566918 -0.0315584
-0.00944863 -0.00604712 -0.00585815
0.0406291 -0.0141729 0.0219208
0.0217318 -0.00377945 -0.00226767
-0.0168186 0.0317474 0.0145509
-0.013984 0.0353379 0.0308025
0.000188973 -0.0451645 -0.0262672
-0.00075589 -0.0419519 -0.0377945
-0.0153068 -0.0568808 -0.0678412
-0.00812582 -0.0546131 0.11773
0.00359048 0.10677 0.0234326
-0.0398732 0.0264562 -0.0170075
-0.00793685 0.0457314 -0.0587705
-0.0744552 0.0183303 0.00925966
0.0393063 -0.0211649 -0.0188973
0.0075589 0.00850377 -0.00510226
-0.0309915 0.0321253 0.0221098
-0.0317474 0.0224877 0.0313695
-0.00491329 0.00491329 -0.0181414
Vibration 13
-0.00585815 -0.00302356 -0.0311805
-0.00566918 -0.00510226 -0.0317474
-0.00340151 -0.00661404 -0.00736993
-0.000377945 -0.00585815 0.00850377
-0.000944863 -0.00321253 -0.00170075
-0.00283459 -0.000944863 -0.0120942
0.00151178 -0.00151178 -0.00321253
-0.00396842 0.00491329 0.00642507
-0.00510226 0.0119053 0.0270231
-0.00774788 -0.0020787 -0.0319364
-0.0175745 -0.00718096 -0.0291018
-0.00944863 -0.0124722 -0.0107714
0.00699199 -0.0111494 0.00302356
0.0105825 -0.0020787 -0.00396842
0.00359048 0.00113384 -0.020976
0.0236216 -0.0224877 0.0306136
-0.00359048 -0.00226767 -0.00226767
-0.0020787 -0.0151178 -0.013984
-0.0020787 -0.013984 -0.0177634
-0.0041574 0.00245664 -0.0075589
-0.00585815 0.0200311 0.0062361
-0.00529123 0.0164406 0.00831479
-0.00434637 0.00170075 -0.0143619
-0.0213539 0.0170075 0.00264562
0.00491329 -0.00453534 -0.00434637
-0.0234326 0.0449755 0.0589595
-0.0134171 0.0279679 0.0366607
0.00642507 -0.00831479 0.0113384
0.00170075 -0.00982658 0.0160627
-0.0238105 0.048566 0.0430858
-0.00907068 0.0262672 0.0170075
0.020409 -0.020976 -0.020787
0.027401 -0.0381725 -0.0234326
0.0102045 -0.00434637 0.0149288
0.0398732 -0.0109604 0.0160627
0.00529123 -0.00396842 -0.0221098
-0.00718096 -0.00585815 -0.048188
0.0423299 -0.00377945 0.0321253
-0.0309915 -0.00850377 -0.0404401
-0.0145509 -0.0175745 -0.00699199
0.0211649 0.000566918 0.00566918
0.00907068 0.0062361 -0.0243775
0 -0.0264562 -0.0202201
-0.000566918 -0.0262672 -0.027779
-0.00718096 0.0349599 0.0153068
-0.00718096 0.027401 0.0181414
-0.000944863 0.0170075 0.00850377
-0.00264562 0.0164406 -0.0430858
-0.00982658 -0.0285349 -0.0168186
-0.020598 0.0120942 0.0154958
-0.0122832 0.0294797 -0.0489439
-0.0614161 0.0364717 0.0238105
-0.0417629 0.0816362 0.0680301
-0.0183303 0.0427078 0.0239995
0.0355268 -0.0432747 -0.0470542
0.0474321 -0.0719986 -0.0502667
0.000566918 0.000944863 -0.0102045
Vibration 14
0.00642507 -0.00302356 -0.0111494
0.00812582 -0.00434637 -0.0153068
0.0105825 -0.0062361 0.00585815
0.0100155 -0.00793685 0.0319364
0.0122832 -0.00831479 0.0704868
0.00831479 -0.00340151 0.0268341
0.0190862 -0.0107714 0.137005
0.0113384 0.0253223 -0.00302356
0.0156847 0.0710537 -0.0421409
0.000377945 0.00113384 -0.0255113
-0.0124722 0.000566918 -0.0268341
-0.0117163 -0.00075589 -0.0149288
0.00340151 0 -0.00226767
0.00585815 0.00774788 -0.00812582
0.00453534 0.00736993 -0.0196532
0.0192752 -0.0103935 0.0249444
0.0113384 -0.00302356 0.00566918
0.0145509 0.00377945 0.00850377
0.0145509 0.00585815 0.00661404
0.0122832 0 0.00113384
0.00944863 -0.00321253 0.00113384
0.00925966 -0.0041574 0.00396842
0.0122832 -0.0041574 -0.00585815
-0.00831479 0.0202201 0.0103935
-0.020976 -0.0211649 0.00170075
-0.0325033 0.0264562 -0.00718096
-0.00944863 0.00566918 -0.00699199
-0.00982658 0.0187083 -0.000566918
0.00170075 0.00188973 -0.00642507
0.00510226 -0.0202201 -0.0179524
0.0122832 -0.0249444 -0.0164406
0 0.00170075 0.00302356
-0.0119053 0.0243775 0.0105825
-0.0272121 -0.0249444 -0.0158737
-0.027401 -0.0119053 -0.0241885
-0.048188 -0.0340151 -0.0744552
0.00585815 -0.00529123 -0.0364717
-0.0468652 0.00321253 -0.02759
-0.0226767 -0.000944863 -0.0355268
-0.0200311 -0.00321253 -0.0141729
0.0119053 0.0117163 -0.0020787
0.0100155 0.0117163 -0.0222988
0.0171965 0.00699199 0.0120942
0.0164406 0.0107714 0.00888171
0.00699199 -0.00529123 -0.00170075
0.00736993 -0.00566918 0.00396842
0.0119053 -0.00642507 -0.00925966
0.0175745 -0.00604712 -0.00661404
0.00718096 -0.00396842 -0.00774788
0.00302356 0.00812582 0.0328812
-0.00925966 0.020598 -0.0362827
-0.0364717 0.0519675 0.0270231
0.00944863 -0.0359048 -0.0287238
0.0260782 -0.0466762 -0.0283459
0.00226767 0.00377945 0.0115273
-0.020787 0.041574 0.0239995
0.0266451 -0.0147399 0.181981
Vibration 15
-0.00132281 0.0041574 0.013606
-0.0020787 0.00661404 -0.0132281
-0.00245664 0.00718096 -0.027779
0 0.00680301 -0.0062361
-0.00075589 0.00359048 0.0126612
-0.00151178 0.00434637 0.0134171
-0.00188973 0.00170075 0.0285349
-0.000188973 0.00812582 -0.00359048
0.00170075 0.0154958 -0.0292908
0.00680301 0 0.0253223
0.0200311 -0.000188973 0.02759
0.0190862 0.00132281 0.0173855
0.00396842 0.00226767 0.00529123
0.00661404 -0.00736993 0.013795
0.00661404 -0.00642507 0.0226767
-0.020409 0.0175745 -0.0260782
-0.0041574 -0.00491329 -0.0408181
-0.0183303 -0.0156847 -0.0366607
-0.0183303 -0.020598 -0.0185193
-0.00321253 -0.0134171 -0.00434637
0.0107714 -0.0241885 -0.0228657
0.00869274 -0.0185193 -0.0406291
-0.0020787 0.0132281 0.0434637
0.00888171 -0.0122832 -0.0096376
-0.0141729 0.00302356 0.00661404
0.0149288 -0.0124722 -0.00132281
0.00321253 0.00226767 0.0062361
0.0111494 -0.00831479 -0.00188973
-0.000944863 0.0041574 0.00736993
-0.0126612 0.0217318 0.0219208
-0.0111494 0.020409 0.020409
0.0111494 -0.00718096 -0.00302356