[Molden Format]
[FREQ]
-12.6
10.8
23.2
26.3
31.3
35.3
37.3
43.6
49.7
56.7
70.9
81.2
96.7
104.8
107.7
113.5
127.2
133.7
154.9
164.8
176.6
192.1
210.5
222.2
230.6
251.3
264.1
278.9
293.0
313.8
320.7
329.2
352.2
357.5
361.7
366.3
388.6
424.2
428.2
441.5
455.0
483.9
493.6
518.7
526.1
532.9
548.5
562.1
576.2
595.4
601.2
614.3
616.3
625.7
638.7
648.2
652.8
676.3
701.6
717.8
722.0
758.9
762.7
779.7
792.7
808.6
825.1
832.8
846.0
858.0
883.8
884.1
895.4
903.7
939.8
971.1
972.8
1003.4
1005.3
1008.9
1010.8
1015.1
1017.7
1034.9
1035.6
1045.5
1068.2
1074.3
1081.3
1087.6
1126.5
1150.3
1178.2
1185.2
1186.5
1193.0
1196.6
1208.1
1213.4
1230.4
1244.2
1258.6
1265.1
1270.5
1271.6
1283.2
1285.3
1294.9
1298.5
1303.0
1314.8
1333.7
1336.6
1339.0
1341.6
1348.5
1352.7
1364.4
1370.2
1377.7
1392.9
1424.6
1440.5
1506.6
1518.5
1521.2
1527.9
1534.8
1557.0
1576.7
1597.7
1604.0
1636.6
1689.8
1694.9
1697.8
1698.1
1706.9
1707.4
1709.2
1716.0
1803.7
1846.5
2455.9
2651.6
2653.2
2665.8
2672.8
2722.6
2731.8
2733.5
2742.4
2743.5
2744.8
2746.0
2748.1
2751.4
2751.7
2753.4
2758.5
2764.1
2764.4
2764.9
2768.2
2779.1
       
[FR-COORD]
C -2.19718 -3.05247 -1.36193
C 0.439172 -3.05247 -1.36193
C 1.74705 -0.743796 -1.36193
N 0.499455 1.48306 -1.33963
C -2.03939 1.49402 -1.31922
C -3.50525 -0.730757 -1.36419
N -3.14205 3.97787 -1.16067
C -6.17449 -0.639483 -1.44016
N -8.35826 -0.54991 -1.5201
C -3.56761 -5.45507 -1.36344
C -3.2012 -7.15772 -3.36088
C -4.48432 -9.43578 -3.40094
C -6.13934 -10.012 -1.40123
C -6.50708 -8.34824 0.613027
C -5.21338 -6.05789 0.608681
O -7.25674 -12.2991 -1.67978
C 4.5172 -0.575044 -1.36835
C 5.93279 -2.05224 0.301033
C 8.55158 -1.8387 0.334859
C 9.77026 -0.16195 -1.30391
C 8.34843 1.31052 -2.97254
C 5.72757 1.11739 -2.99654
C 12.579 0.0334482 -1.29276
C -9.11831 -13.0047 0.124533
C -1.87045 6.06092 -0.975099
C -1.71247 6.57096 4.27229
C 1.04653 6.272 3.84748
C 2.20361 6.26633 1.48079
C 0.837338 6.4776 -0.984925
C 2.4899 5.88744 6.02407
C 5.08884 5.51176 5.84473
C 6.25424 5.52367 3.48428
C 4.8154 5.9052 1.31393
O 1.93489 7.21138 -2.86029
O -2.98123 5.16141 5.52726
O -2.85991 8.63454 3.28623
H 1.47795 -4.83071 -1.36438
H -5.07996 4.03116 -1.10114
H -1.91618 -6.66979 -4.89893
H -4.24735 -10.7754 -4.94069
H -7.77471 -8.80008 2.15996
H -5.48814 -4.72809 2.16411
H 4.98869 -3.34652 1.59531
H 9.65461 -2.97689 1.64312
H 9.28857 2.61822 -4.25321
H 4.61018 2.30093 -4.27078
H 13.3985 -0.368119 0.57202
H 13.2457 1.91864 -1.85514
H 13.4133 -1.3281 -2.6288
H -9.77102 -14.8323 -0.617185
H -10.6758 -11.6432 0.157225
H -8.27511 -13.2464 1.9965
H 1.56677 5.85362 7.86976
H 6.20321 5.20071 7.54643
H 8.28494 5.21697 3.32913
H 5.72058 5.90313 -0.546887
H -1.91618 9.5057 1.92695

[FR-NORM-COORD]
Vibration 1
0.00472431 -0.0109604 -0.00510226
0.00472431 -0.0107714 -0.0115273
0.00453534 -0.0107714 -0.0105825
0.00453534 -0.0105825 -0.00264562
0.00472431 -0.0109604 0.00302356
0.00472431 -0.0109604 0.00170075
0.0041574 -0.0115273 0.0096376
0.00453534 -0.0109604 0.00661404
0.00434637 -0.0111494 0.0103935
0.00510226 -0.0111494 -0.00548021
0.0041574 -0.0102045 -0.00642507
0.00491329 -0.0105825 -0.00642507
0.00642507 -0.0119053 -0.00548021
0.00699199 -0.0126612 -0.00472431
0.0062361 -0.0122832 -0.00472431
0.00736993 -0.0124722 -0.00510226
0.00453534 -0.0103935 -0.0179524
0.0096376 -0.0143619 -0.0257003
0.0096376 -0.0128501 -0.0315584
0.00453534 -0.0075589 -0.0300466
-0.000377945 -0.00453534 -0.0232436
-0.000377945 -0.0062361 -0.0173855
0.00434637 -0.00491329 -0.0359048
0.00907068 -0.013795 -0.0041574
0.00283459 -0.0115273 0.0124722
-0.0105825 0.0852266 0.00718096
-0.0141729 0.0332592 0.0175745
-0.0075589 -0.00793685 0.020976
0.00151178 -0.00604712 0.0164406
-0.0260782 0.0298577 0.0247554
-0.0317474 -0.0153068 0.034771
-0.0253223 -0.0565028 0.0377945
-0.0134171 -0.0519675 0.0306136
0.00566918 -0.00075589 0.0211649
-0.0353379 0.123777 0.0255113
0.0260782 0.0912738 -0.0224877
0.00491329 -0.0107714 -0.0173855
0.00396842 -0.0122832 0.00925966
0.00283459 -0.00925966 -0.00718096
0.0041574 -0.0100155 -0.00718096
0.00812582 -0.0134171 -0.0041574
0.00661404 -0.0128501 -0.00434637
0.013606 -0.0185193 -0.0270231
0.013606 -0.0156847 -0.0376055
-0.00434637 -0.00075589 -0.0222988
-0.0041574 -0.0041574 -0.0120942
0.00925966 -0.0100155 -0.0391173
0.00132281 -0.00245664 -0.0315584
0.00245664 0 -0.0421409
0.0100155 -0.0143619 -0.00377945
0.00793685 -0.0151178 -0.00340151
0.0102045 -0.0132281 -0.00453534
-0.0313695 0.0638727 0.0228657
-0.041385 -0.0181414 0.0406291
-0.0300466 -0.0922186 0.0459203
-0.00850377 -0.0833369 0.0330702
0.0377945 0.0489439 -0.041196
Vibration 2
-0.00510226 -0.0130391 0.0100155
-0.00510226 -0.0120942 0.0111494
-0.00585815 -0.0117163 0.0192752
-0.00661404 -0.0122832 0.0268341
-0.00661404 -0.0132281 0.0255113
-0.00585815 -0.0134171 0.0183303
-0.00718096 -0.013606 0.0283459
-0.00585815 -0.013795 0.0183303
-0.00585815 -0.013984 0.0187083
-0.00434637 -0.0134171 -0.00245664
0.00151178 -0.00548021 -0.00831479
0.000944863 -0.00491329 -0.0219208
-0.00566918 -0.0126612 -0.0296687
-0.0111494 -0.0211649 -0.0236216
-0.0103935 -0.0215429 -0.00982658
-0.00604712 -0.0107714 -0.0430858
-0.00585815 -0.0103935 0.0173855
-0.00340151 -0.013984 0.0117163
-0.00321253 -0.0134171 0.00869274
-0.00585815 -0.00944863 0.0109604
-0.00869274 -0.00491329 0.0170075
-0.00850377 -0.00529123 0.020598
-0.00585815 -0.00982658 0.00699199
-0.0151178 -0.0158737 -0.0544241
-0.00661404 -0.0128501 0.0143619
0.0198421 0.0251334 0.00850377
0.0190862 0.0349599 -0.0041574
0.00661404 0.0170075 -0.0102045
-0.00718096 -0.0113384 -0.00491329
0.0326923 0.0644397 -0.00793685
0.0334482 0.075778 -0.0177634
0.020976 0.0576366 -0.0239995
0.0075589 0.0283459 -0.0202201
-0.0183303 -0.0296687 -0.0188973
0.0338261 0.0298577 0.0279679
0.00434637 0.0115273 -0.0020787
-0.00434637 -0.0117163 0.00529123
-0.00661404 -0.0143619 0.0400622
0.00642507 0.000566918 -0.00226767
0.00548021 0.00151178 -0.0266451
-0.0158737 -0.027401 -0.0292908
-0.0147399 -0.0281569 -0.00491329
-0.00113384 -0.0175745 0.00982658
-0.00132281 -0.0164406 0.00434637
-0.0105825 -0.00151178 0.0190862
-0.0107714 -0.00170075 0.0255113
-0.00377945 -0.00812582 0.00642507
-0.00604712 -0.0105825 0.0041574
-0.00793685 -0.0113384 0.00736993
-0.0171965 -0.0100155 -0.0672742
-0.0117163 -0.0120942 -0.0523454
-0.0224877 -0.0287238 -0.0527234
0.0425188 0.0791795 -0.00264562
0.0440306 0.0993996 -0.020409
0.0217318 0.0668963 -0.0315584
-0.0020787 0.0145509 -0.0249444
-0.00850377 0.00340151 -0.0164406
Vibration 3
-0.00869274 0.00699199 -0.00453534
-0.00869274 0.00774788 -0.00113384
-0.0096376 0.00812582 0.00113384
-0.00907068 0.00812582 -0.000566918
-0.00925966 0.00736993 -0.000566918
-0.00888171 0.00680301 -0.00340151
-0.0111494 0.00604712 0.00585815
-0.00888171 0.00585815 -0.00453534
-0.00888171 0.00472431 -0.00529123
-0.00548021 0.00510226 -0.0075589
-0.00151178 0.00812582 -0.00944863
0.00831479 0.00264562 -0.00888171
0.0141729 -0.00585815 -0.00642507
0.00793685 -0.00736993 -0.00642507
-0.0020787 -0.00170075 -0.00699199
0.0268341 -0.0122832 -0.0041574
-0.00925966 0.00434637 0.00907068
-0.020976 0.0317474 0.0432747
-0.020598 0.0255113 0.0510226
-0.00907068 -0.00850377 0.0249444
0.0020787 -0.0355268 -0.00869274
0.00151178 -0.0289128 -0.0168186
-0.00869274 -0.0156847 0.0328812
0.0383614 -0.0257003 0.00245664
-0.0143619 0.00793685 0.00604712
0.0164406 0.0164406 0.0120942
0.0113384 -0.00472431 -0.00585815
-0.00264562 -0.000377945 -0.0124722
-0.0158737 0.0168186 -0.00359048
0.0215429 -0.0283459 -0.0166296
0.0175745 -0.0449755 -0.0340151
0.00434637 -0.0368497 -0.0404401
-0.00566918 -0.0151178 -0.0300466
-0.0279679 0.0351489 -0.00340151
0.0145509 0.0279679 0.0232436
0.0249444 0.0232436 0.0164406
-0.00774788 0.00812582 0.000377945
-0.0111494 0.00359048 0.0111494
-0.00566918 0.0143619 -0.0107714
0.0120942 0.00434637 -0.00982658
0.0109604 -0.0130391 -0.00548021
-0.00661404 -0.00321253 -0.00661404
-0.0306136 0.0587705 0.0633058
-0.0296687 0.0470542 0.0774788
0.0115273 -0.061794 -0.0285349
0.0103935 -0.0506447 -0.0440306
-0.0147399 -0.00869274 0.0370386
-0.00283459 -0.0196532 0.0258892
-0.00793685 -0.0238105 0.0417629
0.0504557 -0.0315584 0.0062361
0.027779 -0.0379835 0.0062361
0.0461093 -0.0173855 0
0.0317474 -0.0332592 -0.0115273
0.0255113 -0.0640617 -0.0425188
0.00170075 -0.0478101 -0.0536682
-0.0164406 -0.0096376 -0.0351489
0.0226767 0.0151178 0.0100155
Vibration 4
-0.0115273 0.0120942 -0.0143619
-0.0117163 0.00774788 -0.0130391
-0.00736993 0.00566918 -0.00472431
-0.00377945 0.0075589 -0.000377945
-0.00396842 0.0113384 -0.0041574
-0.00774788 0.013795 -0.0102045
-0.000377945 0.0126612 -0.00151178
-0.0075589 0.0173855 -0.0111494
-0.00736993 0.0200311 -0.0115273
-0.0113384 0.0119053 -0.0153068
-0.0232436 0.0192752 -0.0236216
-0.0113384 0.0124722 -0.0160627
0.0132281 -0.00188973 0.000188973
0.0200311 -0.00604712 0.00472431
0.00718096 0.00132281 -0.00321253
0.0287238 -0.0105825 0.00944863
-0.00699199 -0.00377945 0
-0.0151178 -0.0291018 -0.0153068
-0.013606 -0.0478101 -0.0162516
-0.00396842 -0.0410071 -0.00188973
0.0041574 -0.0122832 0.0166296
0.00264562 0.0062361 0.0177634
-0.00226767 -0.0653845 -0.0062361
0.0699199 -0.0376055 0.041196
0.00264562 0.0103935 0.00226767
-0.00510226 -0.00075589 0.00113384
-0.00321253 0.0102045 0.00510226
0 0.0109604 0.00661404
0.00302356 0.00661404 0.00453534
-0.00472431 0.0190862 0.00774788
-0.00321253 0.02759 0.0117163
-0.000377945 0.0260782 0.0130391
0.00113384 0.0179524 0.0105825
0.0062361 0.00151178 0.00434637
-0.0020787 -0.00793685 -0.00396842
-0.0109604 -0.00283459 0.00340151
-0.0147399 0.00585815 -0.0179524
-0.000377945 0.0154958 -0.00245664
-0.0406291 0.0294797 -0.0349599
-0.0192752 0.0170075 -0.0213539
0.0355268 -0.0147399 0.0147399
0.0130391 -0.0020787 0.000566918
-0.0222988 -0.0355268 -0.0268341
-0.0200311 -0.0685971 -0.0289128
0.0115273 -0.00529123 0.0292908
0.00907068 0.027401 0.0317474
-0.00321253 -0.0740773 -0.0075589
0.013984 -0.0710537 -0.00585815
-0.0162516 -0.0719986 -0.00850377
0.0867384 -0.0489439 0.0542351
0.0493218 -0.061983 0.0644397
0.103935 -0.0221098 0.0279679
-0.00680301 0.0194642 0.00661404
-0.00434637 0.0351489 0.013795
0.00075589 0.0315584 0.0160627
0.00359048 0.0177634 0.0117163
-0.0122832 0.00245664 0.00585815
Vibration 5
-0.00075589 -0.00812582 -0.0166296
-0.000944863 -0.0103935 -0.020976
-0.000188973 -0.0105825 -0.0145509
0.000188973 -0.0105825 -0.00831479
0.000377945 -0.00869274 -0.00699199
-0.000377945 -0.00793685 -0.00982658
0.00359048 -0.00774788 -0.00151178
-0.000566918 -0.00831479 -0.00377945
-0.00075589 -0.00944863 0.00132281
-0.00585815 -0.00566918 -0.0141729
-0.0510226 0.0124722 -0.0372276
-0.0595264 0.0168186 -0.0325033
-0.020409 0.00321253 -0.0041574
0.0245664 -0.013984 0.0183303
0.0311805 -0.0177634 0.0130391
-0.0336371 0.0096376 -0.00321253
-0.000566918 -0.00453534 -0.00850377
0.000188973 -0.00302356 -0.00793685
-0.00151178 0.0166296 0.00925966
-0.00396842 0.034393 0.0255113
-0.0041574 0.027779 0.0200311
-0.00245664 0.00831479 0.00302356
-0.00585815 0.0616051 0.0500777
0.0181414 -0.0120942 0.0417629
0.0075589 -0.0102045 0.000566918
0.00982658 0.00377945 -0.000944863
0.00944863 -0.00132281 -0.00113384
0.00888171 -0.0103935 -0.00132281
0.00850377 -0.0160627 -0.00170075
0.00944863 0.00434637 -0.000188973
0.00907068 0.00113384 0.00075589
0.00869274 -0.00736993 0.000566918
0.00850377 -0.0130391 -0.000377945
0.00944863 -0.0238105 -0.0041574
0.00869274 0.0096376 0.00434637
0.0124722 0.00264562 -0.00642507
-0.00226767 -0.0109604 -0.0281569
0.00377945 -0.00510226 0.000188973
-0.0799354 0.0222988 -0.0580146
-0.0950532 0.0304246 -0.0498888
0.0536682 -0.0238105 0.0391173
0.0651955 -0.0298577 0.0292908
0.00188973 -0.0158737 -0.0198421
-0.00113384 0.0190862 0.0111494
-0.00585815 0.0389284 0.0302356
-0.00321253 0.00453534 0
-0.0183303 0.0661404 0.0565028
-0.0194642 0.069164 0.0593374
0.0190862 0.0721875 0.0548021
0.00453534 -0.00831479 0.0442196
0.0143619 -0.0177634 0.0948642
0.0695419 -0.0249444 0.0170075
0.0096376 0.0113384 0.000188973
0.00907068 0.00529123 0.00151178
0.00831479 -0.0096376 0.00113384
0.00831479 -0.0198421 -0.000566918
0.0120942 -0.0041574 -0.0111494
Vibration 6
0.00774788 0.00434637 0.0304246
0.00736993 0.00529123 0.0217318
0.0062361 0.00604712 0.013795
0.00566918 0.00566918 0.00491329
0.00548021 0.00434637 0.0153068
0.00642507 0.00340151 0.0381725
0.00396842 0.00472431 -0.00283459
0.00529123 0.000377945 0.0721875
0.00396842 -0.00359048 0.104691
0.00812582 0.00396842 0.020409
-0.0164406 0.0325033 -0.00869274
-0.0213539 0.0359048 -0.0283459
-0.000566918 0.00982658 -0.0185193
0.0266451 -0.0202201 0.0111494
0.0306136 -0.0222988 0.0308025
-0.0109604 0.0179524 -0.0432747
0.00642507 0.00340151 0.0107714
0.00453534 0.0109604 0.0192752
0.00529123 0.0020787 0.0126612
0.00793685 -0.0145509 -0.00226767
0.0096376 -0.0196532 -0.00831479
0.00869274 -0.0103935 -0.00170075
0.00888171 -0.0272121 -0.0124722
0.0117163 -0.00869274 -0.0304246
0.0020787 0.0075589 -0.0198421
-0.0170075 -0.00340151 -0.0328812
-0.0149288 -0.00434637 -0.0183303
-0.00472431 0.00321253 -0.0134171
0.00245664 0.00699199 -0.0173855
-0.0251334 -0.013606 -0.0134171
-0.0245664 -0.0149288 -0.00396842
-0.0141729 -0.0062361 0.00113384
-0.00434637 0.00264562 -0.00396842
0.00736993 0.0062361 -0.0143619
-0.0292908 -0.013984 -0.0574477
-0.00472431 0.0096376 -0.020409
0.00812582 0.00566918 0.0194642
0.00377945 0.00377945 -0.00113384
-0.0321253 0.0527234 -0.0153068
-0.041385 0.0582036 -0.0510226
0.0436527 -0.041196 0.0188973
0.0502667 -0.0442196 0.0529123
0.00245664 0.0236216 0.0302356
0.00396842 0.00736993 0.0185193
0.0115273 -0.0311805 -0.0187083
0.0102045 -0.0149288 -0.00699199
0.013795 -0.0262672 -0.0143619
0.0154958 -0.0317474 -0.0196532
-0.0020787 -0.034393 -0.0119053
-0.00302356 0.00604712 -0.0534792
0.0156847 -0.00529123 0.0147399
0.0368497 -0.0434637 -0.0462983
-0.0330702 -0.0200311 -0.0175745
-0.0321253 -0.0224877 -0.000377945
-0.013795 -0.00699199 0.00888171
0.00340151 0.00869274 -0.000188973
0.00661404 0.0181414 -0.00680301
Vibration 7
0.0202201 -0.0100155 -0.00888171
0.0196532 -0.00491329 -0.00604712
0.0143619 -0.00151178 -0.00510226
0.0111494 -0.00340151 -0.00548021
0.0107714 -0.00925966 -0.00812582
0.0160627 -0.0124722 -0.0134171
-0.000566918 -0.0147399 -0.000944863
0.0158737 -0.020598 -0.0234326
0.0158737 -0.0289128 -0.0330702
0.0179524 -0.00888171 -0.00321253
-0.0132281 -0.00113384 -0.0149288
-0.0294797 0.0075589 -0.0124722
-0.0126612 0.00925966 0.00170075
0.0232436 -0.000377945 0.0164406
0.0381725 -0.00925966 0.013795
-0.0370386 0.0213539 -0.00075589
0.0147399 -0.00170075 -0.00226767
0.00925966 0.0147399 0.0171965
0.0100155 0.00529123 0.0143619
0.0160627 -0.020787 -0.00774788
0.0211649 -0.034393 -0.0241885
0.0202201 -0.0245664 -0.0215429
0.0171965 -0.0353379 -0.0145509
-0.0257003 0.0283459 0.013795
-0.0145509 -0.00812582 0.00774788
-0.0119053 0.000188973 0.0187083
-0.0120942 0.0103935 0.00982658
-0.0168186 0.0149288 0.00736993
-0.0200311 0.0187083 0.00982658
-0.00548021 0.0145509 0.0062361
-0.00472431 0.0215429 0.000188973
-0.0105825 0.0230547 -0.00245664
-0.0166296 0.0194642 0.000944863
-0.0285349 0.0444086 0.0147399
0.00151178 0.00188973 0.034393
-0.0283459 -0.0134171 0.00982658
0.0234326 -0.00264562 -0.0041574
-0.00132281 -0.0255113 -0.00245664
-0.0262672 -0.0020787 -0.0258892
-0.055369 0.013795 -0.0219208
0.0385504 -0.00075589 0.0289128
0.0650066 -0.0153068 0.0236216
0.0041574 0.034582 0.0332592
0.00566918 0.0175745 0.0287238
0.0258892 -0.0531013 -0.0396842
0.0245664 -0.0362827 -0.0355268
0.0190862 -0.0272121 -0.013606
0.0257003 -0.0425188 -0.0281569
0.00736993 -0.048566 -0.00718096
-0.0529123 0.0406291 0.00736993
-0.0111494 0.0444086 0.0396842
-0.00831479 0.00604712 0.00302356
-0.000944863 0.0120942 0.00850377
0.000188973 0.0257003 -0.00226767
-0.0102045 0.02759 -0.00736993
-0.0211649 0.0213539 -0.00132281
-0.0383614 -0.0143619 0.00226767
Vibration 8
0.00944863 -0.00359048 -0.00302356
0.00925966 0.000566918 -0.00907068
0.00642507 0.00245664 -0.0062361
0.00321253 0.00132281 -0.00529123
0.00340151 -0.00302356 -0.0020787
0.00642507 -0.00548021 0.00151178
-0.00529123 -0.00680301 0.00075589
0.00604712 -0.0103935 0.0107714
0.00548021 -0.0153068 0.0194642
0.0113384 -0.00453534 0.00132281
0.00850377 -0.00718096 0.00321253
0.00396842 -0.00491329 0.00529123
0.00188973 0.00075589 0.00510226
0.00774788 0.00170075 0.00529123
0.0124722 -0.00113384 0.00359048
-0.00604712 0.00453534 0.00548021
0.0062361 0.00170075 0.00113384
0.00283459 -0.0472432 -0.0387394
0.00302356 -0.0529123 -0.0294797
0.00812582 -0.00812582 0.0200311
0.0124722 0.0408181 0.0597153
0.0122832 0.0445975 0.0498888
0.00850377 -0.0143619 0.0323143
-0.0211649 0.0192752 -0.0041574
-0.0168186 -0.000377945 -0.00226767
-0.000944863 0.0096376 0.00283459
-0.00453534 -0.0041574 -0.0105825
-0.0126612 0.0122832 -0.0145509
-0.0217318 0.0236216 -0.00850377
0.00188973 -0.0311805 -0.0194642
0 -0.0368497 -0.0319364
-0.00718096 -0.0122832 -0.0353379
-0.013606 0.0120942 -0.0268341
-0.0336371 0.0468652 -0.0062361
-0.00170075 0.0179524 0.0113384
0.00434637 0.0145509 0.00642507
0.0111494 0.00170075 -0.0147399
-0.00585815 -0.0154958 0.00548021
0.00907068 -0.0109604 0.00245664
0.00113384 -0.00642507 0.0062361
0.00812582 0.00472431 0.00661404
0.0168186 -0.000188973 0.00340151
0 -0.082581 -0.075967
-0.000377945 -0.0924076 -0.0608492
0.0162516 0.0750221 0.0975099
0.0156847 0.0801244 0.0793685
-0.00245664 -0.0158737 0.0370386
0.0170075 -0.0168186 0.0349599
0.0115273 -0.0173855 0.0372276
-0.0326923 0.0251334 -0.00831479
-0.0100155 0.0321253 -0.0107714
-0.0321253 0.0113384 -0.000188973
0.00774788 -0.0474321 -0.0166296
0.00472431 -0.0591484 -0.0391173
-0.00793685 -0.0128501 -0.0447865
-0.0192752 0.0309915 -0.0294797
0.0020787 0.00907068 0.00170075
Vibration 9
-0.00226767 -0.00226767 -0.0308025
-0.00188973 -0.00396842 -0.0582036
0.000566918 -0.00566918 -0.0538572
0.00434637 -0.00359048 -0.0434637
0.00472431 -0.00170075 -0.020409
0.00132281 -0.000188973 -0.00377945
0.00604712 -0.00170075 -0.00793685
0 0.00548021 0.0496998
-0.00170075 0.0115273 0.0997775
-0.0020787 -0.0020787 -0.0211649
0.0119053 -0.0198421 -0.00359048
0.0154958 -0.0222988 0.00888171
0.00321253 -0.00642507 0.00321253
-0.0120942 0.0117163 -0.0145509
-0.0141729 0.0126612 -0.0262672
0.00907068 -0.0111494 0.0185193
0.00113384 -0.0107714 -0.0417629
-0.0168186 -0.00226767 -0.0188973
-0.0175745 0.000377945 0.0111494
-0.000377945 -0.00566918 0.0175745
0.0179524 -0.0192752 -0.0100155
0.0179524 -0.0215429 -0.0398732
-0.00113384 0.00283459 0.0572587
-0.0120942 0.0103935 0.00529123
0.00529123 -0.00283459 0.00132281
-0.00340151 -0.00359048 0.00661404
-0.00188973 0.00793685 0.00699199
-0.000566918 0.00359048 0.00774788
0.00264562 0.00661404 0.00604712
-0.00113384 0.0217318 0.00907068
-0.000188973 0.027401 0.0115273
0 0.0166296 0.0115273
-0.000377945 0.00472431 0.0096376
0.00245664 0.0215429 0.0119053
0.00548021 -0.00566918 0.0134171
-0.0160627 -0.0147399 -0.000944863
-0.00302356 -0.00472431 -0.0763449
0.00585815 -0.00132281 -0.00718096
0.020409 -0.0321253 -0.000377945
0.02759 -0.0359048 0.0226767
-0.0215429 0.0241885 -0.0185193
-0.0247554 0.0249444 -0.0385504
-0.0308025 0.00340151 -0.0232436
-0.0319364 0.00850377 0.0302356
0.0319364 -0.0268341 -0.00736993
0.0319364 -0.0309915 -0.0600933
-0.02759 0.0202201 0.0727545
0.00151178 0.000377945 0.0523454
0.0228657 -0.00548021 0.0808803
-0.0062361 0.00321253 0.0173855
-0.0107714 0.0126612 -0.0266451
-0.0334482 0.0291018 0.0171965
-0.00151178 0.027779 0.00907068
0.000377945 0.0394953 0.0134171
0.000377945 0.0183303 0.0130391
0 -0.00245664 0.0096376
-0.0215429 -0.0134171 -0.00453534
Vibration 10
-0.00264562 0.013606 0.020976
-0.00264562 0.0126612 0.0266451
-0.00132281 0.0119053 0.0107714
-0.0020787 0.0117163 -0.0130391
-0.0020787 0.0126612 -0.0173855
-0.00321253 0.0132281 0.00585815
0.00132281 0.0160627 -0.0527234
-0.00340151 0.013984 0.0154958
-0.00359048 0.0154958 0.0264562
-0.00075589 0.0126612 0.0179524
0.00170075 0.0228657 0.00944863
0.00472431 0.0217318 -0.00188973
0.00604712 0.0100155 -0.0041574
0.00396842 -0.000566918 0.0041574
0.000566918 0.00170075 0.0151178
0.00925966 0.0100155 -0.0166296
-0.00170075 0.0113384 0.0103935
0.000377945 0.00396842 0.00226767
0.000944863 -0.00132281 -0.00472431
-0.000377945 0.00132281 -0.00302356
-0.00245664 0.0111494 0.00736993
-0.00283459 0.0160627 0.013984
0.000188973 -0.00699199 -0.0134171
0.0166296 -0.00699199 -0.0160627
0.00888171 0.0122832 -0.0548021
-0.0041574 -0.00793685 0.0253223
-0.00888171 -0.00699199 -0.00566918
-0.00793685 -0.0122832 -0.00529123
0.0134171 -0.00982658 -0.0177634
-0.00604712 -0.0143619 -0.00661404
-0.00850377 -0.027779 -0.0041574
-0.00869274 -0.0323143 -0.00377945
-0.00812582 -0.0234326 -0.0020787
0.0391173 -0.0268341 -0.00982658
0.0502667 0.0672742 0.167241
-0.075967 -0.115462 -0.109226
-0.00359048 0.0120942 0.0404401
0.000944863 0.0236216 -0.0842818
0.00151178 0.0319364 0.0120942
0.0062361 0.0292908 -0.00831479
0.00472431 -0.0100155 0.0020787
-0.00151178 -0.00585815 0.0211649
0.00170075 0.00188973 0.00113384
0.00245664 -0.00774788 -0.0117163
-0.00377945 0.0145509 0.00982658
-0.0041574 0.0234326 0.0215429
0.00642507 -0.0147399 -0.0177634
0.00359048 -0.00736993 -0.0107714
-0.00907068 -0.00566918 -0.020598
0.0196532 -0.00396842 -0.0258892
0.0126612 -0.0117163 -0.00283459
0.0226767 -0.0164406 -0.0200311
-0.00699199 -0.0115273 -0.00585815
-0.0111494 -0.034771 -0.00377945
-0.0102045 -0.0425188 -0.00491329
-0.0062361 -0.0257003 -0.00151178
-0.0980768 -0.133037 -0.137761
Vibration 11
-0.00170075 -0.0115273 0.0168186
-0.000944863 -0.0215429 0.0228657
0.00812582 -0.0270231 0.0141729
0.0171965 -0.020598 0.00774788
0.0181414 -0.0109604 0.00718096
0.00907068 -0.00585815 0.0107714
0.020409 -0.00888171 -0.000566918
0.00982658 0.00888171 0.00434637
0.0105825 0.0245664 -0.00113384
-0.0145509 -0.00453534 0.00718096
-0.00075589 -0.00850377 0.0126612
-0.00869274 -0.00359048 0.000944863
-0.0294797 0.0020787 -0.0141729
-0.0500777 0.00907068 -0.0238105
-0.0428968 0.00529123 -0.0134171
-0.0306136 0.00434637 -0.0243775
0.00850377 -0.0287238 0.00283459
0.0217318 -0.0219208 -0.00283459
0.020787 -0.00377945 -0.00736993
0.00661404 0.00774788 -0.00604712
-0.00604712 -0.00548021 -0.00718096
-0.00434637 -0.0241885 -0.00283459
0.00453534 0.0381725 -0.00434637
0.0396842 -0.0474321 0.027779
0.0134171 -0.00642507 -0.00774788
-0.00321253 0.000944863 -0.00396842
-0.00264562 0.00377945 -0.00264562
0.00113384 0.020787 -0.000944863
0.0041574 0.0313695 -0.00151178
-0.00529123 -0.0115273 -0.00359048
-0.00453534 -0.00661404 -0.00283459
-0.00075589 0.013795 -0.000944863
0.00188973 0.0270231 -0.000377945
-0.00245664 0.0712427 0.0102045
-0.000377945 0.00321253 0.00170075
-0.00850377 -0.0062361 -0.0124722
-0.00793685 -0.0257003 0.0308025
0.0194642 -0.0100155 0.000188973
0.0179524 -0.0154958 0.0258892
0.00302356 -0.00604712 0.00472431
-0.0723765 0.0183303 -0.0393063
-0.0591484 0.00982658 -0.0200311
0.0332592 -0.0298577 -0.00226767
0.0308025 0.00283459 -0.0102045
-0.0170075 -0.000188973 -0.00982658
-0.013795 -0.0338261 -0.00302356
0.00982658 0.0249444 -0.00944863
-0.0171965 0.0527234 0.0183303
0.0194642 0.0640617 -0.0211649
0.0716206 -0.0667073 0.0470542
0.00264562 -0.0908958 0.0672742
0.0958091 -0.0221098 0.00566918
-0.00793685 -0.0272121 -0.00510226
-0.00661404 -0.0185193 -0.00359048
0.000188973 0.0192752 0
0.00434637 0.0421409 0.000944863
-0.00850377 -0.00491329 -0.0117163
Vibration 12
-0.0179524 0.00075589 0.0173855
-0.0175745 -0.0107714 0.0198421
-0.00736993 -0.0173855 -0.00132281
0.00245664 -0.0109604 -0.0143619
0.00321253 0.000377945 -0.00982658
-0.00736993 0.00585815 0.00075589
0.0141729 0.00604712 -0.0147399
-0.00661404 0.0188973 -0.0117163
-0.00548021 0.0319364 -0.0262672
-0.0170075 -0.00075589 0.0196532
-0.0304246 0.0181414 0.000566918
-0.0103935 0.00736993 -0.000377945
0.020409 -0.0219208 0.0168186
0.0326923 -0.0404401 0.034204
0.013795 -0.0287238 0.0359048
0.0464873 -0.0353379 0.0185193
-0.00736993 -0.0247554 -0.0113384
-0.00302356 -0.0238105 -0.0143619
-0.00396842 -0.0111494 -0.0100155
-0.00982658 0.00075589 -0.00226767
-0.0134171 -0.0100155 -0.00869274
-0.0120942 -0.0232436 -0.0134171
-0.0119053 0.0289128 0.0154958
-0.0391173 0.00075589 -0.0559359
0.0177634 0.00170075 -0.00907068
0.00396842 0.00075589 -0.00245664
0.00510226 0.00453534 0.00245664
0.00812582 0.0113384 0.00396842
0.0119053 0.0236216 0.00264562
0.00245664 0.00132281 0.00359048
0.00302356 0.00453534 0.0062361
0.00604712 0.0100155 0.0075589
0.00850377 0.0130391 0.00642507
0.0111494 0.0574477 0.0153068
0.00396842 -0.000566918 -0.00396842
0.00188973 -0.00264562 -0.00718096
-0.0258892 -0.0158737 0.0340151
0.013795 0.0130391 -0.0196532
-0.0557469 0.0417629 -0.0132281
-0.0192752 0.0213539 -0.013984
0.0591484 -0.0655735 0.048377
0.0234326 -0.0432747 0.0496998
0.00132281 -0.0308025 -0.0181414
-0.000377945 -0.00812582 -0.0105825
-0.0173855 -0.0062361 -0.00774788
-0.0153068 -0.0300466 -0.0168186
-0.0202201 0.0366607 0.020787
-0.027779 0.0360938 0.020787
0.0109604 0.0381725 0.020409
-0.0532903 0.0188973 -0.0880612
-0.0096376 0.0357158 -0.106958
-0.113573 -0.0262672 -0.0257003
-0.000188973 -0.00377945 0.00226767
0.00132281 0.00283459 0.00699199
0.00642507 0.0120942 0.0096376
0.0109604 0.0177634 0.0075589
0.00434637 0 -0.00377945
Vibration 13
-0.00075589 -0.00472431 -0.0292908
-0.000377945 -0.00812582 -0.02759
0.00170075 -0.00925966 0.0120942
0.00434637 -0.00812582 0.0400622
0.00472431 -0.00491329 0.0247554
0.00245664 -0.00283459 -0.00188973
0.00699199 -0.00396842 0.0270231
0.00245664 0.00566918 0.00566918
0.00245664 0.0171965 0.0162516
-0.00566918 -0.00226767 -0.0364717
-0.0185193 -0.00774788 -0.0332592
-0.0134171 -0.0119053 -0.013984
0.00396842 -0.00869274 0.00113384
0.00812582 0.00283459 -0.0075589
0.00359048 0.00453534 -0.0258892
0.020787 -0.0213539 0.0338261
0.00188973 -0.00529123 0.0158737
0.00812582 0.00604712 0.0198421
0.00831479 0.0109604 0.0111494
0.00075589 0.00283459 -0.00264562
-0.00680301 -0.00340151 -0.00188973
-0.0062361 -0.00661404 0.00831479
0.00113384 0.00151178 -0.0230547
-0.0190862 0.020598 0.0096376
0.00869274 -0.00340151 0.00529123
-0.00529123 0.00377945 -0.00453534
-0.00718096 -0.0147399 -0.00548021
0.00340151 0.0241885 -0.00113384
0.00699199 0.00113384 -0.00529123
-0.0162516 -0.0568808 -0.00699199
-0.0120942 -0.0319364 -0.000944863
0.00245664 0.041385 0.00680301
0.00907068 0.0636838 0.00604712
0.00680301 -0.0221098 -0.0143619
-0.0124722 0.0270231 0.0145509
0.00529123 0.00132281 -0.0217318
-0.00170075 -0.00869274 -0.0523454
0.00736993 -0.00245664 0.0396842
-0.0317474 -0.0109604 -0.0451645
-0.020787 -0.0177634 -0.00982658
0.0173855 0.00812582 0.00170075
0.0100155 0.0109604 -0.0302356
0.0134171 0.0103935 0.0279679
0.013795 0.0196532 0.013795
-0.0128501 -0.00661404 -0.00944863
-0.0120942 -0.0105825 0.0100155
0.0175745 -0.0247554 -0.0360938
-0.00377945 0.00925966 -0.00283459
-0.0113384 0.0198421 -0.0495108
-0.013606 0.0103935 0.0298577
-0.0128501 0.0291018 -0.0457314
-0.0578256 0.0496998 0.0309915
-0.0264562 -0.106392 -0.0126612
-0.0198421 -0.0661404 -0.0020787
0.00812582 0.075778 0.0120942
0.0183303 0.107903 0.0105825
0.0105825 -0.00888171 -0.0247554
Vibration 14
-0.00170075 0.00075589 0.0145509
-0.00188973 0.00302356 0.00812582
-0.00340151 0.00396842 -0.0145509
-0.00491329 0.00283459 -0.0247554
-0.00491329 0.00113384 -0.013984
-0.00377945 0 0.00075589
-0.00170075 0.00283459 -0.0141729
-0.00377945 -0.00736993 -0.0041574
-0.00396842 -0.0190862 -0.0120942
0.00264562 -0.00188973 0.0215429
0.0115273 0 0.0211649
0.00907068 0.0020787 0.0103935
-0.00264562 0.00113384 0.000566918
-0.00340151 -0.00604712 0.0062361
-0.00151178 -0.00661404 0.0162516
-0.0162516 0.0105825 -0.0213539
-0.00377945 0.00283459 -0.0187083
-0.00888171 0.000377945 -0.0154958
-0.00982658 -0.00132281 -0.00831479
-0.00396842 -0.00113384 -0.00472431
0.00245664 -0.00302356 -0.0107714
0.00151178 -0.000188973 -0.0171965
-0.00377945 -0.00529123 0.0171965
0.00907068 -0.0153068 -0.00585815
0.00264562 -0.000377945 -0.00264562
0.00132281 0.00245664 0.00812582
-0.00151178 -0.0188973 0.00491329
0.0020787 0.00925966 0.0062361
0.00434637 -0.00718096 0.00340151
-0.00491329 -0.0427078 0.00283459
0 -0.0115273 0.00510226
0.00774788 0.0449755 0.00944863
0.00774788 0.048377 0.00982658
0.00944863 -0.0258892 -0.00113384
-0.0119053 0.020598 0.0147399
0.0238105 0.0154958 0.00812582
-0.00075589 0.00377945 0.0188973
-0.00151178 0.00604712 -0.0234326
0.0196532 0.00113384 0.0281569
0.013984 0.00510226 0.00850377
-0.00793685 -0.00944863 0.00151178
-0.00510226 -0.0103935 0.0188973
-0.0134171 0.00113384 -0.0181414
-0.0132281 -0.00132281 -0.00529123
0.00604712 -0.00491329 -0.0100155
0.00585815 0.00113384 -0.0198421
-0.0385504 0.178768 0.0727545
0.013984 -0.0651955 -0.160249
0.0147399 -0.143052 0.169319
-0.00340151 -0.00321253 -0.0247554
0.0103935 -0.0151178 0.0377945
0.0364717 -0.0445975 -0.0219208
-0.0103935 -0.0808803 -0.000377945
-0.00226767 -0.027779 0.00359048
0.013606 0.082581 0.0113384
0.0124722 0.0806913 0.0119053
0.0304246 0.0020787 0.00434637
Vibration 15
0.00188973 0.000188973 -0.0062361
0.00226767 -0.00245664 -0.00680301
0.00472431 -0.00396842 0.0134171
0.00699199 -0.00226767 0.0355268
0.00699199 -0.000566918 0.0300466
0.00491329 0.00132281 0.0102045
0.00226767 -0.00321253 0.034204
0.00548021 0.013606 0.0020787
0.00661404 0.0332592 -0.00642507
-0.00245664 0.00302356 -0.0141729
-0.00793685 0.00245664 -0.0143619
-0.00585815 0.000944863 -0.00793685
0.0020787 0.00075589 -0.00151178
0.000944863 0.00548021 -0.00566918
-0.00113384 0.0062361 -0.0117163
0.0122832 -0.0062361 0.0130391
0.00529123 -0.00566918 0.00510226
0.0122832 -0.00718096 -0.00151178
0.0113384 -0.00151178 -0.00699199
0.00529123 0.00491329 -0.00642507
-0.000566918 0.000566918 -0.00396842
-0.000944863 -0.00453534 0.00245664
0.00510226 0.00869274 0.00434637
-0.0020787 0.00907068 0.00434637
-0.00283459 0.00170075 0.0103935
-0.00510226 -0.00132281 -0.00793685
-0.00283459 0.0143619 -0.00661404
-0.00264562 -0.00188973 -0.00642507
-0.00377945 0.0041574 -0.00491329
-0.00264562 0.0238105 -0.00510226
-0.0062361 -0.00075589 -0.00529123