[Molden Format]
[FREQ]
9.7
15.5
25.7
30.0
30.9
35.0
39.7
42.7
45.4
54.3
75.7
81.5
90.1
106.6
113.2
121.9
125.3
136.7
152.5
166.8
179.6
186.9
206.0
214.7
232.5
247.2
252.0
259.8
271.3
291.2
316.5
320.2
334.1
351.0
356.5
364.1
384.0
403.4
412.9
441.4
443.7
466.0
488.8
507.7
524.2
541.7
552.8
565.4
575.8
582.2
601.7
611.0
616.2
631.4
635.9
642.7
658.1
666.9
679.2
706.6
719.9
727.7
761.0
772.8
783.8
808.1
818.0
829.9
848.0
874.4
881.0
882.9
897.3
901.1
940.0
964.2
969.2
988.4
1005.6
1009.2
1009.7
1016.6
1017.2
1024.6
1033.4
1046.7
1071.2
1075.1
1080.6
1105.0
1124.4
1126.4
1178.9
1181.8
1183.1
1183.7
1193.0
1203.4
1206.6
1240.5
1256.8
1264.4
1271.3
1272.7
1275.6
1283.9
1286.7
1294.5
1302.4
1311.4
1329.0
1331.7
1334.3
1339.9
1346.8
1348.7
1352.9
1360.0
1366.1
1382.9
1394.7
1428.5
1433.2
1499.1
1512.8
1522.0
1525.8
1529.2
1547.0
1560.2
1569.1
1600.3
1608.7
1647.7
1687.9
1691.9
1699.1
1699.5
1704.5
1708.4
1710.4
1826.9
1838.4
2449.2
2651.7
2654.0
2666.6
2673.3
2730.0
2736.0
2744.4
2744.7
2745.3
2746.0
2746.5
2750.6
2754.5
2757.1
2760.8
2762.0
2765.2
2765.8
2766.9
2769.2
2779.4
       
[FR-COORD]
C -2.23101 -2.82703 1.20489
C 0.400433 -2.82703 1.20489
C 1.6983 -0.510226 1.20489
N 0.471298 1.71738 1.22284
C -2.0959 1.74573 1.21415
C -3.5472 -0.514761 1.19828
N -3.1942 4.12282 1.20716
C -6.20926 -0.435015 1.11154
N -8.39605 -0.354513 1.0282
C -3.58878 -5.2387 1.18391
C -3.12258 -6.9695 -0.768174
C -4.38549 -9.25909 -0.829401
C -6.12422 -9.8141 1.10266
C -6.59288 -8.12374 3.07251
C -5.31391 -5.82508 3.09065
O -7.22272 -12.1111 0.812015
C 4.4726 -0.380024 1.18391
C 5.72398 1.31487 2.77657
C 8.34843 1.45282 2.7367
C 9.73228 -0.0767229 1.08829
C 8.47202 -1.76179 -0.510415
C 5.84965 -1.91883 -0.461282
C 12.5438 0.075778 1.04502
C -9.14646 -12.7865 2.56152
C -1.81848 6.38822 0.811826
C 1.08281 6.28958 0.757591
C 2.36688 5.80921 -1.68715
C 1.04294 5.50553 -3.95652
C -1.7376 5.74911 -3.84918
C 4.99492 5.58886 -1.65823
C 6.29373 5.01136 -3.87715
C 4.97414 4.65836 -6.12668
C 2.35176 4.91971 -6.16542
O -2.70401 6.087 -6.09663
O 2.19813 6.75331 2.68379
O -2.98974 8.33672 0.708269
H 1.44526 -4.59544 1.24609
H -4.5669 6.30054 -6.06886
H -1.772 -6.49556 -2.25407
H -4.07028 -10.622 -2.334
H -7.92853 -8.55819 4.56596
H -5.6637 -4.47582 4.61263
H 4.63096 2.54376 4.03268
H 9.32032 2.76146 3.99035
H 9.54312 -2.95383 -1.79694
H 4.87115 -3.2216 -1.72097
H 13.3248 -0.260026 -0.849243
H 13.3787 -1.3521 2.30868
H 13.2492 1.92544 1.67279
H -9.76875 -14.6299 1.83568
H -10.7055 -11.4272 2.50861
H -8.36827 -12.9834 4.46712
H 6.02671 5.83661 0.114895
H 8.34276 4.81956 -3.84106
H 5.98665 4.18707 -7.85446
H 1.31374 4.66517 -7.92872
H -5.11813 4.26662 1.24779

[FR-NORM-COORD]
Vibration 1
-0.00831479 -0.00453534 -0.00604712
-0.00831479 -0.00377945 -0.0115273
-0.00944863 -0.00321253 -0.0160627
-0.0100155 -0.00359048 -0.0162516
-0.0100155 -0.00434637 -0.0128501
-0.00925966 -0.00510226 -0.00736993
-0.0107714 -0.00472431 -0.0151178
-0.00944863 -0.0062361 -0.00283459
-0.00944863 -0.00718096 0.000944863
-0.0075589 -0.00510226 0.00226767
-0.0115273 -0.0096376 0.00529123
-0.0105825 -0.0103935 0.013984
-0.00566918 -0.00642507 0.0194642
-0.00188973 -0.00188973 0.0164406
-0.00283459 -0.00113384 0.00774788
-0.00529123 -0.00774788 0.027779
-0.00944863 -0.00226767 -0.0213539
-0.00642507 -0.0132281 -0.0122832
-0.00642507 -0.0126612 -0.0171965
-0.0100155 -0.000377945 -0.0317474
-0.0134171 0.0107714 -0.0408181
-0.0132281 0.0096376 -0.0355268
-0.0102045 0.000944863 -0.0376055
-0.000188973 -0.00472431 0.034582
-0.00944863 -0.00434637 -0.0096376
-0.00907068 -0.00264562 0.0124722
0.0115273 0.013795 0.0202201
0.0292908 0.00888171 0.0103935
0.0270231 -0.0113384 -0.00736993
0.0130391 0.034393 0.0376055
0.0328812 0.0506447 0.0449755
0.0510226 0.0457314 0.0351489
0.0491329 0.0245664 0.0179524
0.0376055 -0.0302356 -0.0149288
-0.0249444 -0.0134171 0.0245664
-0.0100155 -0.00510226 -0.0185193
-0.00736993 -0.00302356 -0.0119053
0.0360938 -0.0436527 -0.0270231
-0.0151178 -0.0126612 0.000944863
-0.013606 -0.013984 0.0164406
0.00188973 0.00132281 0.020598
0.000188973 0.00245664 0.00529123
-0.00377945 -0.0222988 -0.00132281
-0.00377945 -0.0217318 -0.0100155
-0.0160627 0.020598 -0.0521564
-0.0160627 0.0181414 -0.0421409
-0.0149288 0.0164406 -0.0423299
-0.00642507 -0.00907068 -0.0514005
-0.00925966 -0.00396842 -0.0245664
-0.000566918 -0.00699199 0.0410071
-0.00132281 -0.00604712 0.0351489
0.00510226 0.00075589 0.0330702
-0.00113384 0.0376055 0.0453534
0.0340151 0.0670853 0.0583925
0.0665184 0.0580146 0.0408181
0.0631168 0.0200311 0.0103935
-0.0107714 -0.00529123 -0.0221098
Vibration 2
-0.00226767 -0.0102045 -0.0113384
-0.00226767 -0.0100155 -0.00793685
-0.00245664 -0.0100155 -0.0113384
-0.0020787 -0.0100155 -0.0188973
-0.00226767 -0.0100155 -0.0222988
-0.00226767 -0.0100155 -0.020598
-0.00245664 -0.0102045 -0.0230547
-0.0020787 -0.0107714 -0.0251334
-0.0020787 -0.0119053 -0.0287238
-0.00151178 -0.0107714 -0.00075589
0.00075589 -0.0213539 0.00925966
0.0041574 -0.0236216 0.0228657
0.00566918 -0.0151178 0.0264562
0.00245664 -0.00377945 0.0160627
-0.00113384 -0.00170075 0.00226767
0.0103935 -0.0192752 0.041196
-0.00226767 -0.0115273 -0.00321253
-0.0062361 -0.0143619 0.00302356
-0.00585815 -0.0177634 0.0132281
-0.00151178 -0.0183303 0.0173855
0.00245664 -0.0153068 0.0111494
0.0020787 -0.0119053 0.00075589
-0.00113384 -0.0222988 0.0292908
0.013606 -0.0130391 0.0470542
-0.00113384 -0.00812582 -0.00510226
-0.00113384 -0.00869274 -0.00321253
-0.00132281 0.00585815 -0.00604712
-0.000566918 0.0447865 -0.0117163
0.000566918 0.0627389 -0.013606
-0.00340151 -0.0183303 -0.00472431
-0.00529123 -0.0041574 -0.00944863
-0.00510226 0.0355268 -0.0158737
-0.00264562 0.0604712 -0.0170075
0.0126612 0.144753 -0.00642507
-0.00188973 -0.020598 0
-0.000377945 -0.00699199 0.00510226
-0.00226767 -0.00982658 -0.00132281
0.0143619 0.16006 -0.00680301
-0.000188973 -0.0279679 0.0062361
0.0062361 -0.0319364 0.0308025
0.00283459 0.00321253 0.0185193
-0.00340151 0.00680301 -0.00585815
-0.00944863 -0.0141729 0
-0.00907068 -0.0200311 0.0179524
0.00585815 -0.0156847 0.0143619
0.00510226 -0.0096376 -0.00396842
0.00718096 -0.0317474 0.034582
-0.00869274 -0.0177634 0.0394953
-0.00170075 -0.020409 0.0243775
0.0181414 -0.0196532 0.0597153
0.0096376 -0.0177634 0.0391173
0.0153068 0.00170075 0.047999
-0.00377945 -0.048188 -0.000188973
-0.00718096 -0.0239995 -0.00831479
-0.00661404 0.0476211 -0.0200311
-0.0020787 0.0924076 -0.0217318
-0.00264562 -0.0103935 -0.0279679
Vibration 3
-0.00925966 0.00982658 -0.00925966
-0.00944863 0.00699199 -0.0168186
-0.0075589 0.00585815 -0.00888171
-0.00585815 0.00661404 -0.00359048
-0.00585815 0.00907068 -0.000944863
-0.00774788 0.0103935 0.00321253
-0.00321253 0.0103935 -0.00302356
-0.00850377 0.0100155 0.0232436
-0.00925966 0.00850377 0.0419519
-0.00982658 0.00982658 -0.0130391
-0.0500777 0.0370386 -0.0464873
-0.0436527 0.0336371 -0.0457314
0.00548021 0.00245664 -0.0103935
0.0428968 -0.0222988 0.0198421
0.034204 -0.0173855 0.0179524
0.0109604 -0.000188973 -0.0107714
-0.00736993 0.0020787 -0.00377945
-0.00831479 -0.00566918 0.00529123
-0.00793685 -0.0126612 0.0147399
-0.0062361 -0.0115273 0.0149288
-0.00548021 -0.00245664 0.00472431
-0.00604712 0.00434637 -0.00472431
-0.00566918 -0.0202201 0.0270231
0.0674632 -0.0377945 0.0364717
-0.00075589 0.00793685 -0.00774788
-0.00075589 0.00510226 -0.00491329
0.00188973 -0.00245664 -0.0020787
0.00453534 -0.00529123 -0.00321253
0.00491329 0.00113384 -0.00831479
0.00132281 -0.00774788 0.00245664
0.00340151 -0.0168186 0.00604712
0.00604712 -0.020409 0.00510226
0.00661404 -0.0145509 0.000377945
0.0105825 0.0062361 -0.0100155
-0.00264562 0.00812582 -0.00453534
0.00132281 0.00888171 -0.0130391
-0.0115273 0.00548021 -0.02759
0.0111494 0.0115273 -0.013795
-0.0859825 0.0604712 -0.0716206
-0.0746442 0.0536682 -0.0704868
0.0784236 -0.0451645 0.0447865
0.0627389 -0.0357158 0.0406291
-0.00925966 -0.00680301 0.00548021
-0.00850377 -0.0192752 0.0221098
-0.00434637 -0.00113384 0.00434637
-0.00529123 0.0111494 -0.0122832
0.00264562 -0.0323143 0.0325033
-0.0158737 -0.0158737 0.0385504
-0.00340151 -0.0187083 0.020598
0.062172 -0.034204 0.0319364
0.0544241 -0.0504557 0.0980768
0.123966 -0.0544241 0.0117163
-0.00075589 -0.00491329 0.00340151
0.00302356 -0.0211649 0.0096376
0.0075589 -0.0279679 0.00812582
0.00888171 -0.0168186 -0.000377945
-0.00302356 0.0124722 -0.0020787
Vibration 4
0.0100155 -0.0119053 0.00283459
0.0096376 -0.0103935 -0.000377945
0.00812582 -0.00907068 -0.0041574
0.00585815 -0.0102045 -0.00925966
0.00585815 -0.0120942 -0.0041574
0.00793685 -0.0130391 0.00302356
0.00340151 -0.0132281 -0.0041574
0.00736993 -0.0166296 0.0120942
0.00699199 -0.0200311 0.0202201
0.00680301 -0.0103935 0.00529123
-0.0217318 0.00132281 -0.0115273
-0.0353379 0.00869274 -0.0151178
-0.0192752 0.00472431 -0.00170075
0.0134171 -0.00869274 0.0175745
0.0260782 -0.0158737 0.020976
-0.0393063 0.0153068 -0.00982658
0.00793685 -0.00472431 0.00151178
-0.00075589 0.0202201 -0.0177634
-0.000944863 0.0247554 -0.00925966
0.00850377 0.00302356 0.0187083
0.0175745 -0.0219208 0.0377945
0.0177634 -0.0253223 0.0289128
0.00850377 0.0062361 0.0287238
-0.0308025 0.0177634 0.000566918
0.000944863 -0.0119053 -0.00453534
0.000944863 -0.0096376 -0.00566918
0.000377945 0.00850377 -0.0096376
-0.00113384 0.0124722 -0.00944863
-0.00283459 -0.00982658 -0.00283459
0.00170075 0.0251334 -0.0147399
0.00264562 0.0495108 -0.020598
0.00188973 0.0572587 -0.0213539
-0.000188973 0.0377945 -0.0154958
-0.0117163 -0.0224877 -0.000944863
0.00151178 -0.0194642 -0.00359048
-0.000566918 -0.0128501 -0.00340151
0.0103935 -0.00982658 0.000566918
-0.0134171 -0.0377945 0.00359048
-0.034393 0.00472431 -0.0217318
-0.0591484 0.0181414 -0.0287238
0.0281569 -0.0132281 0.0294797
0.0502667 -0.0251334 0.034771
-0.00774788 0.0359048 -0.0385504
-0.00850377 0.0445975 -0.0241885
0.0249444 -0.0387394 0.0593374
0.0253223 -0.0449755 0.0432747
0.0156847 -0.00548021 0.0336371
0.00529123 0.0153068 0.041196
0.0041574 0.0109604 0.0190862
-0.055369 0.0308025 -0.0115273
-0.0179524 0.0334482 0.0272121
-0.0156847 -0.00793685 -0.00831479
0.00264562 0.0200311 -0.0145509
0.00396842 0.0627389 -0.0247554
0.00283459 0.0776677 -0.0264562
-0.000944863 0.0419519 -0.0156847
0.00340151 -0.0151178 -0.00245664
Vibration 5
0.00982658 -0.0115273 0.0171965
0.00982658 -0.00718096 0.0122832
0.00491329 -0.00453534 0.00869274
0.00113384 -0.00680301 0.00453534
0.00113384 -0.0109604 0.00548021
0.00548021 -0.013795 0.0179524
-0.00302356 -0.0128501 -0.00736993
0.00472431 -0.0198421 0.0330702
0.00396842 -0.0255113 0.048188
0.0096376 -0.0115273 0.0162516
-0.00510226 -0.00151178 0.00396842
-0.0173855 0.00566918 -0.00680301
-0.0147399 0.00264562 -0.00510226
0.00510226 -0.0102045 0.0105825
0.0173855 -0.0171965 0.0213539
-0.0336371 0.013606 -0.020409
0.00472431 0.00396842 0.00604712
0.000944863 -0.00566918 0.0192752
0 0.0096376 0.0109604
0.00226767 0.0351489 -0.0107714
0.00604712 0.0427078 -0.0217318
0.00718096 0.0266451 -0.0130391
0.000944863 0.0561249 -0.0230547
-0.0425188 0.0200311 -0.02759
-0.00661404 -0.0124722 -0.0145509
-0.0062361 -0.0062361 -0.00718096
0.000377945 -0.0122832 -0.00226767
0.0075589 -0.00869274 -0.00661404
0.0075589 0.00151178 -0.0190862
-0.000566918 -0.0222988 0.00718096
0.00491329 -0.0315584 0.0126612
0.0113384 -0.0304246 0.00888171
0.0126612 -0.0181414 -0.00113384
0.0262672 0.062361 -0.0179524
-0.0122832 0.00264562 -0.00585815
-0.0103935 -0.0151178 -0.027401
0.0132281 -0.00510226 0.0103935
0.0272121 0.0735103 -0.0264562
-0.00793685 0.00132281 0.00226767
-0.0302356 0.013984 -0.0171965
0.0103935 -0.0143619 0.0141729
0.0317474 -0.0262672 0.0326923
-0.00151178 -0.0239995 0.034771
-0.00264562 0.00226767 0.020598
0.00793685 0.0616051 -0.0374166
0.0096376 0.0330702 -0.0213539
-0.00453534 0.0663294 -0.0270231
0.0171965 0.0595264 -0.0298577
-0.0103935 0.0600933 -0.0217318
-0.0636838 0.0340151 -0.0447865
-0.0266451 0.0385504 -0.0154958
-0.0451645 -0.00661404 -0.0292908
-0.00566918 -0.0232436 0.0103935
0.00396842 -0.0394953 0.0202201
0.0153068 -0.0385504 0.0134171
0.0179524 -0.0153068 -0.00453534
-0.00340151 -0.0162516 -0.0111494
Vibration 6
-0.00925966 0.00604712 0.0266451
-0.00907068 0.00585815 0.020409
-0.0075589 0.00491329 0.00869274
-0.0062361 0.00566918 0.000188973
-0.0062361 0.00604712 0.0103935
-0.00812582 0.00661404 0.0309915
-0.00566918 0.00661404 -0.00321253
-0.00888171 0.00925966 0.0585815
-0.00982658 0.0119053 0.0857936
-0.0041574 0.00321253 0.0185193
0.0258892 0.00321253 0.0249444
0.0372276 -0.00226767 0.0113384
0.0162516 -0.00831479 -0.00907068
-0.0149288 -0.00850377 -0.0164406
-0.0245664 -0.00302356 -0.00226767
0.0311805 -0.013795 -0.020976
-0.00736993 -0.000944863 0.00188973
0.00075589 0.0126612 -0.0192752
0.00151178 0.000566918 -0.0221098
-0.00585815 -0.0258892 -0.00359048
-0.0141729 -0.0383614 0.0158737
-0.0145509 -0.0255113 0.0183303
-0.00510226 -0.0425188 -0.00548021
0.00925966 -0.0200311 -0.0474321
-0.00548021 0.00340151 -0.0183303
-0.00529123 0.0041574 -0.0117163
0.000377945 0.00718096 -0.00907068
0.00604712 0.0062361 -0.0120942
0.00472431 -0.00302356 -0.0187083
0.000944863 0.0134171 -0.00377945
0.00718096 0.0187083 -0.00170075
0.0126612 0.0185193 -0.00491329
0.0120942 0.0120942 -0.0100155
0.0130391 0.0232436 -0.0183303
-0.0100155 0.00453534 -0.00907068
-0.00548021 0.00283459 -0.034771
-0.0096376 0.00548021 0.0232436
0.0126612 0.0198421 -0.0232436
0.0410071 0.00812582 0.0400622
0.0614161 -0.0020787 0.0162516
-0.0313695 -0.0130391 -0.0325033
-0.048377 -0.0041574 -0.00642507
0.00661404 0.0315584 -0.0325033
0.00774788 0.0111494 -0.0379835
-0.0196532 -0.0582036 0.0294797
-0.020787 -0.0355268 0.0332592
-0.0100155 -0.0353379 -0.00888171
-0.0122832 -0.0557469 -0.0158737
0.00774788 -0.0510226 0.00510226
0.027779 -0.0238105 -0.0538572
0.0041574 -0.0270231 -0.0714316
-0.0170075 -0.0141729 -0.0360938
-0.00321253 0.0145509 -0.00151178
0.00736993 0.0234326 0.00245664
0.0175745 0.0232436 -0.00340151
0.0166296 0.0120942 -0.0126612
-0.00566918 0.00736993 -0.00302356
Vibration 7
0.00075589 0 0.00396842
0.000566918 -0.000188973 0.0107714
0.000566918 -0.000188973 0.0096376
0.000377945 -0.000188973 0.00604712
0.000377945 -0.000188973 0.00113384
0.000566918 -0.000188973 -0.00226767
-0.000188973 -0.000566918 -0.000944863
0.000944863 -0.00151178 -0.0130391
0.00113384 -0.00321253 -0.0232436
0 0.000188973 0.00245664
-0.00699199 0.00529123 -0.00377945
-0.00793685 0.00585815 -0.00529123
-0.00113384 0.00132281 -0.000566918
0.00585815 -0.00359048 0.00529123
0.0062361 -0.00377945 0.00661404
-0.00245664 0.0020787 -0.00264562
0.000566918 -0.000188973 0.00925966
0.00170075 0.00982658 -0.00340151
0.00245664 0.0117163 -0.00774788
0.000566918 0.00264562 0.000944863
-0.00132281 -0.0102045 0.013795
0 -0.0115273 0.0179524
0.000566918 -0.00359048 -0.020598
0.00604712 -0.00359048 0.00453534
-0.00113384 0 -0.00075589
-0.00113384 0.00170075 -0.000188973
-0.000944863 0.000188973 0.000377945
-0.00075589 -0.00113384 0.000377945
-0.00075589 0.000377945 -0.000944863
-0.000944863 0.000188973 0.000566918
-0.00075589 -0.0020787 0.00132281
-0.00075589 -0.00453534 0.00170075
-0.000566918 -0.00396842 0.00113384
0.00170075 0.00925966 -0.000566918
-0.00151178 0.00396842 -0.000566918
-0.0020787 -0.000566918 -0.0020787
0.000188973 -0.000377945 0.0158737
0.00170075 0.0109604 -0.00151178
-0.0117163 0.00888171 -0.00680301
-0.013606 0.0096376 -0.0100155
0.0107714 -0.00699199 0.00869274
0.0113384 -0.00699199 0.0105825
0.00302356 0.0173855 -0.00944863
0.00113384 0.0213539 -0.0168186
0 -0.0171965 0.0213539
-0.00132281 -0.020598 0.0281569
-0.05518 0.432369 -0.122454
0.0213539 -0.306514 -0.377567
0.0364717 -0.158548 0.392307
0.00359048 -0.00188973 0.00226767
0.00510226 -0.00434637 0.0153068
0.0149288 -0.00850377 0.000377945
-0.000944863 0.00245664 0.000377945
-0.00075589 -0.00170075 0.00170075
-0.000566918 -0.00680301 0.00226767
-0.000377945 -0.00529123 0.00113384
-0.000377945 -0.00132281 -0.00321253
Vibration 8
0.00566918 0 -0.0128501
0.00585815 0.00302356 -0.0294797
0.00302356 0.00434637 -0.0245664
0.00132281 0.00302356 -0.0166296
0.00113384 0.000566918 -0.00642507
0.00340151 -0.000944863 0.00188973
-0.000377945 -0.000377945 -0.00226767
0.00264562 -0.00151178 0.0289128
0.00170075 -0.000566918 0.0536682
0.0075589 -0.000944863 -0.0062361
0.0151178 -0.0113384 0.00472431
0.0134171 -0.0105825 0.0102045
0.00302356 0.00075589 0.0041574
-0.00283459 0.0100155 -0.00510226
-0.000188973 0.00831479 -0.0100155
-0.000188973 0.00170075 0.00925966
0.00321253 0.00566918 -0.0170075
-0.00321253 -0.0326923 0.0285349
-0.00226767 -0.0419519 0.0517785
0.0041574 -0.0102045 0.0279679
0.00944863 0.034582 -0.0238105
0.00850377 0.0419519 -0.0457314
0.00548021 -0.0264562 0.0572587
-0.0183303 0.0188973 -0.00396842
-0.00132281 0.000566918 -0.00302356
-0.00132281 -0.00075589 -0.00661404
-0.00377945 0.00113384 -0.00850377
-0.00604712 0.0062361 -0.00774788
-0.0062361 0.000377945 -0.0020787
-0.00396842 -0.00113384 -0.0105825
-0.00566918 0.00793685 -0.013984
-0.00718096 0.0181414 -0.0147399
-0.00736993 0.0158737 -0.0113384
-0.0153068 -0.0306136 -0.00302356
0.00075589 -0.00245664 -0.00736993
-0.00170075 0.000377945 0.00170075
0.00869274 0.00434637 -0.0425188
-0.0158737 -0.0366607 0.000944863
0.0221098 -0.0198421 0.00831479
0.0194642 -0.0183303 0.0185193
-0.00944863 0.0181414 -0.00869274
-0.00434637 0.0147399 -0.0164406
-0.00793685 -0.0561249 0.0466762
-0.00699199 -0.0740773 0.0890061
0.0147399 0.0625499 -0.0453534
0.0122832 0.0754001 -0.0833369
0.0170075 0.0582036 0.0468652
-0.013606 -0.0920297 -0.0041574
0.013795 -0.0610381 0.149855
-0.020409 0.0181414 -0.000377945
-0.0119053 0.0257003 -0.0241885
-0.0355268 0.0247554 0.00359048
-0.00302356 -0.0102045 -0.00982658
-0.00566918 0.00736993 -0.0160627
-0.00812582 0.0270231 -0.0177634
-0.00888171 0.0211649 -0.0113384
-0.000188973 -0.000944863 0.00396842
Vibration 9
-0.0200311 0.000377945 0.000566918
-0.0192752 -0.00774788 0.00170075
-0.0122832 -0.0122832 0.00548021
-0.00699199 -0.00944863 0.0020787
-0.00642507 -0.000566918 0.00302356
-0.013795 0.0041574 0.00529123
0.00812582 0.00604712 0.00226767
-0.013606 0.0151178 0.013984
-0.013606 0.0262672 0.0230547
-0.0232436 0.0020787 -0.00472431
-0.0103935 -0.00075589 0.000566918
-0.00132281 -0.00566918 0.000944863
-0.00566918 -0.00850377 -0.00359048
-0.0239995 -0.00283459 -0.0130391
-0.0326923 0.0020787 -0.0134171
0.0105825 -0.0168186 0.00113384
-0.0124722 -0.00831479 0.0128501
-0.0238105 -0.00434637 0.0177634
-0.0253223 0.0190862 0.0132281
-0.0156847 0.0379835 0.00359048
-0.00396842 0.0279679 0.00491329
-0.00264562 0.00434637 0.00982658
-0.0177634 0.0714316 -0.00982658
0.0222988 -0.0315584 0.00812582
0.0287238 -0.00566918 0.00302356
0.0285349 -0.0330702 -0.00151178
0.020598 -0.0196532 -0.00888171
0.0134171 -0.00170075 -0.00699199
0.013795 -0.00472431 0.00472431
0.020598 -0.020409 -0.0192752
0.013984 0.00132281 -0.0289128
0.00718096 0.0236216 -0.0285349
0.00680301 0.020787 -0.0170075
0.00283459 -0.0120942 0.00831479
0.0360938 -0.0566918 0
0.0476211 0.00566918 0.00642507
-0.0247554 -0.0109604 0
0.00283459 -0.0147399 0.0160627
-0.0062361 0.000566918 0.00472431
0.0103935 -0.00831479 0.00566918
-0.0309915 -0.00264562 -0.0190862
-0.0461093 0.00529123 -0.0192752
-0.0317474 -0.0162516 0.0228657
-0.034393 0.0238105 0.0153068
0.0041574 0.0398732 0.00075589
0.0062361 -0.00226767 0.00982658
-0.0249444 0.103746 -0.0185193
0.00642507 0.0659514 -0.0319364
-0.0359048 0.0721875 0.00869274
0.0428968 -0.0425188 0.0179524
0.0062361 -0.0504557 0.00434637
0.0279679 -0.0134171 0.00774788
0.0262672 -0.0376055 -0.0200311
0.0141729 0.00188973 -0.0370386
0.0020787 0.0425188 -0.0366607
0.00113384 0.0364717 -0.0160627
0.0096376 0.020409 0.00321253
Vibration 10
0 -0.00283459 -0.0372276
0.000377945 -0.00283459 -0.0566918
0.00151178 -0.00359048 -0.0417629
0.00075589 -0.00340151 -0.0247554
0.00132281 -0.00264562 -0.013606
0.000566918 -0.00226767 -0.0128501
0.00132281 -0.00226767 0.00245664
-0.000377945 0.00170075 0.0221098
-0.00151178 0.00699199 0.0555579
-0.000944863 -0.0020787 -0.0287238
0.00472431 -0.0194642 -0.0119053
0.0041574 -0.0198421 0.00396842
-0.00302356 -0.00264562 0.00226767
-0.0103935 0.0154958 -0.0149288
-0.00869274 0.0143619 -0.0300466
-0.00226767 -0.00529123 0.020598
0.00113384 0.000944863 -0.0300466
-0.0149288 0.0289128 -0.0461093
-0.0153068 0.0379835 -0.0289128
0.0020787 0.0162516 0.00604712
0.0192752 -0.0130391 0.0234326
0.0192752 -0.0200311 0.00453534
0.00188973 0.0239995 0.0247554
-0.00888171 0.0126612 0.020598
-0.000944863 0.000377945 0.0103935
-0.000944863 0.00396842 0.0096376
0.00075589 0.00302356 0.0111494
0.00132281 -0.0100155 0.0124722
0.00245664 0.00396842 0.00850377
0.00113384 0.00585815 0.0122832
0.00075589 -0.0154958 0.0175745
0 -0.0387394 0.0215429
0.000566918 -0.0334482 0.0183303
0.00869274 0.013795 0.00736993
-0.0020787 0.00132281 0.0111494
-0.00283459 -0.000377945 0.0198421
-0.000188973 -0.00359048 -0.075589
0.0100155 0.0251334 0.0041574
0.0096376 -0.0330702 -0.0117163
0.0096376 -0.0334482 0.0173855
-0.0168186 0.0298577 -0.0164406
-0.0132281 0.0268341 -0.0419519
-0.0279679 0.0434637 -0.0708647
-0.0294797 0.0610381 -0.0417629
0.0332592 -0.0306136 0.0510226
0.0336371 -0.0423299 0.0166296
0.0124722 0.048566 0.0245664
-0.00170075 0.0102045 0.0119053
-0.00510226 0.0175745 0.0512116
-0.00510226 0.00453534 0.0381725
-0.00925966 0.0115273 -0.000566918
-0.0164406 0.0338261 0.0258892
0.00170075 0.0232436 0.00925966
0.00075589 -0.0151178 0.0188973
-0.00075589 -0.0597153 0.0268341
0.000566918 -0.0474321 0.020409
0.00132281 -0.00283459 0.0075589
Vibration 11
0.00850377 -0.0113384 -0.00226767
0.00888171 -0.0149288 0.000188973
0.0126612 -0.0168186 0.0134171
0.0175745 -0.0130391 0.020787
0.0181414 -0.0102045 0.0149288
0.0145509 -0.00812582 0.00736993
0.0117163 -0.0128501 0.0141729
0.0145509 0.000944863 0.00925966
0.0149288 0.0120942 0.0128501
-0.00453534 -0.00396842 -0.0120942
0.0041574 -0.0154958 0.000188973
-0.0115273 -0.00680301 -0.00453534
-0.034393 0.0107714 -0.0198421
-0.0506447 0.0260782 -0.0368497
-0.0355268 0.0171965 -0.0330702
-0.0432747 0.0156847 -0.020976
0.0132281 -0.0185193 0.0156847
0.0134171 -0.0232436 0.020787
0.0128501 -0.0151178 0.0141729
0.0130391 -0.00151178 0.00132281
0.0134171 -0.000944863 0.000377945
0.013984 -0.0096376 0.00793685
0.0119053 0.0145509 -0.0124722
0.0451645 -0.0338261 0.0568808
-0.00699199 -0.00680301 -0.00529123
-0.00718096 0.0213539 -0.0075589
-0.00642507 0.0113384 -0.00434637
-0.00491329 -0.00264562 -0.00321253
-0.00718096 -0.0217318 -0.00548021
-0.00548021 0.0221098 -0.00264562
-0.00226767 0.0241885 -0.00151178
-0.000377945 0.0132281 -0.00075589
-0.00188973 -0.00170075 -0.00151178
-0.00283459 0.013984 -0.00170075
-0.0096376 0.0504557 -0.0134171
-0.0243775 -0.0173855 -0.0213539
0.0062361 -0.0166296 -0.0075589
-0.00434637 0.00340151 -0.00264562
0.0249444 -0.0317474 0.013606
-0.00340151 -0.0153068 0.00472431
-0.075967 0.0457314 -0.0536682
-0.0474321 0.02759 -0.0447865
0.013606 -0.0317474 0.0289128
0.0124722 -0.0179524 0.0173855
0.0132281 0.00736993 -0.00736993
0.0147399 -0.00831479 0.00585815
0.00472431 0.0156847 -0.0154958
0.0266451 0.0221098 -0.013795
0.00377945 0.0202201 -0.0194642
0.0676522 -0.0527234 0.0852266
0.00604712 -0.0765339 0.113384
0.123588 -0.00812582 0.02759
-0.00736993 0.0294797 -0.00264562
-0.00132281 0.034582 -0.000944863
0.00226767 0.0158737 0
-0.000377945 -0.0119053 -0.000944863
0.0100155 -0.0217318 0.0154958
Vibration 12
0.00151178 -0.00377945 0.00132281
0.00170075 -0.00661404 0.00944863
0.0041574 -0.00831479 0.00340151
0.00831479 -0.00510226 -0.0162516
0.00831479 -0.00264562 -0.0236216
0.00566918 -0.0020787 -0.00850377
0.00359048 -0.00566918 -0.0410071
0.00510226 0.00132281 0.0109604
0.00434637 0.00472431 0.0340151
-0.000566918 -0.00283459 0.0020787
0.000188973 -0.00245664 0.00170075
-0.00132281 -0.00151178 -0.00075589
-0.00359048 -0.00151178 -0.00245664
-0.00453534 -0.00188973 -0.00245664
-0.00302356 -0.00245664 -0.000188973
-0.00472431 -0.000566918 -0.00548021
0.00491329 -0.0153068 0.0132281
0.00510226 -0.0109604 0.00793685
0.00472431 -0.00188973 -0.00188973
0.00396842 0.000944863 -0.00510226
0.00472431 -0.0162516 0.0124722
0.00529123 -0.0241885 0.0215429
0.00226767 0.0258892 -0.0313695
0.00321253 -0.00718096 0.00075589
-0.00793685 0.0111494 0.00642507
-0.00888171 0.0255113 -0.00302356
-0.00566918 0.00718096 0.0020787
0.00396842 0.0638727 -0.0109604
0.0075589 0.107336 -0.0190862
-0.0119053 -0.0665184 0.0222988
-0.00850377 -0.0752111 0.0268341
0.00264562 0.00283459 0.00793685
0.0100155 0.0723765 -0.0102045
-0.00283459 -0.0799354 -0.0440306
-0.00831479 0.0449755 -0.00774788
-0.0215429 0.00510226 0.0585815
-0.00075589 -0.00774788 0.020787
-0.00113384 -0.0706758 -0.0527234
0.0020787 -0.00283459 0.00340151
-0.00075589 -0.000944863 -0.00113384
-0.00661404 -0.00132281 -0.0041574
-0.0041574 -0.00283459 -0.000188973
0.00566918 -0.0124722 0.0096376
0.00472431 0.00472431 -0.00888171
0.00453534 -0.0211649 0.0168186
0.00585815 -0.0353379 0.0325033
-0.0130391 0.0306136 -0.0387394
0.0279679 0.0351489 -0.0379835
-0.00850377 0.0330702 -0.0406291
0.00453534 -0.00736993 0.000377945
0.000188973 -0.0103935 0.00812582
0.0105825 -0.00793685 -0.00245664
-0.0200311 -0.116407 0.0340151
-0.0147399 -0.139651 0.0438416
0.00548021 0.00585815 0.00888171
0.0188973 0.127745 -0.0238105
0.00264562 -0.0113384 -0.0338261
Vibration 13
-0.0117163 -0.00377945 -0.0221098
-0.0113384 -0.0153068 -0.020787
-0.000566918 -0.0215429 0.00642507
0.0113384 -0.013984 0.020787
0.0122832 -0.00321253 0.00982658
0.000944863 0.00264562 -0.00566918
0.0149288 -0.00151178 0.0149288
0.00132281 0.0219208 -0.000377945
0.00188973 0.0444086 0.00585815
-0.0162516 -0.00170075 -0.0243775
-0.0308025 0.000377945 -0.0296687
-0.0132281 -0.0103935 -0.00925966
0.0166296 -0.0215429 0.013984
0.0234326 -0.0187083 0.0134171
0.00718096 -0.00944863 -0.00548021
0.0455424 -0.0400622 0.0464873
-0.000188973 -0.0313695 0.0188973
-0.00340151 -0.0353379 0.0260782
-0.00453534 -0.0215429 0.0187083
-0.0020787 -0.00302356 0.00340151
0.00245664 -0.0119053 0.00925966
0.00340151 -0.0260782 0.0170075
-0.00434637 0.0317474 -0.0230547
-0.0425188 0.0202201 -0.0268341
0.00264562 0.00170075 -0.00132281
0.00245664 0.0285349 -0.00774788
0.00113384 0.0128501 -0.00453534
0 -0.00113384 -0.00188973
-0.00132281 -0.0156847 0.000377945
0.00188973 0.0211649 -0.00529123
0.00226767 0.0217318 -0.00529123
0.00170075 0.0109604 -0.00321253
0.000188973 -0.00245664 -0.00132281
-0.00226767 0.00907068 0.00491329
0.00302356 0.0644397 -0.0170075
-0.0105825 -0.00604712 -0.0117163
-0.0196532 -0.020598 -0.0364717
-0.00340151 0.00132281 0.0075589
-0.0548021 0.00907068 -0.048377
-0.0215429 -0.0102045 -0.0111494
0.0449755 -0.0268341 0.0302356
0.0153068 -0.00944863 -0.00377945
-0.00566918 -0.0461093 0.034204
-0.00718096 -0.0221098 0.0213539
0.00510226 -0.00453534 0.00472431
0.00680301 -0.0302356 0.0187083
-0.0185193 0.0396842 -0.0304246
0.0266451 0.0444086 -0.0296687
-0.0222988 0.0419519 -0.0325033
-0.0402512 0.0177634 -0.0226767
-0.0187083 0.0440306 -0.116785
-0.128123 0.0398732 0.0102045
0.0020787 0.0281569 -0.00642507
0.00321253 0.0309915 -0.00699199
0.00226767 0.0124722 -0.00340151
-0.000377945 -0.0128501 0.000566918
0.013795 -0.00359048 0.0181414
Vibration 14
-0.00850377 -0.00699199 0.0291018
-0.00736993 -0.0132281 0.0243775
-0.00170075 -0.0171965 -0.0171965
0.00585815 -0.0124722 -0.0421409
0.00661404 -0.00529123 -0.0228657
-0.000188973 -0.00264562 0.00226767
0.0128501 -0.00264562 -0.0177634
0.000377945 0.00831479 -0.00491329
0.00132281 0.020976 -0.0153068
-0.0107714 -0.00699199 0.0377945
-0.00510226 0.00132281 0.0306136
-0.00359048 0.00188973 0.013795
-0.00925966 -0.0100155 0.00548021
-0.0107714 -0.0228657 0.0158737
-0.0124722 -0.020409 0.0313695
-0.0109604 -0.00585815 -0.0219208
-0.00170075 -0.0145509 -0.020409
-0.0147399 -0.0132281 -0.0111494
-0.0156847 -0.00453534 0.00188973
-0.00359048 0.00434637 0.00377945
0.00907068 0.00831479 -0.0102045
0.00888171 -0.00245664 -0.0217318
-0.00340151 0.0107714 0.0257003
0.000944863 -0.0376055 -0.0219208
0.00982658 0.00491329 0.013984
0.0096376 0.0241885 -0.00548021
0.00510226 0.0317474 -0.00869274
0.00151178 0.0020787 -0.00245664
0.00321253 0.0279679 -0.0062361
0.0075589 0.05518 -0.0147399
0.00434637 0.0302356 -0.0102045
-0.00188973 -0.0268341 0.00245664
-0.00302356 -0.0377945 0.00529123
0.0103935 0.00340151 -0.0134171
0.0162516 0.0258892 -0.00944863
0.00321253 0.00359048 0.0566918
-0.0111494 -0.0149288 0.0476211
0.0126612 0.0217318 -0.020598
-0.000944863 0.00944863 0.0366607
0.00075589 0.0107714 0.00642507
-0.0120942 -0.0336371 0.0115273
-0.0173855 -0.0292908 0.0379835
-0.0241885 -0.0196532 -0.013606
-0.0257003 -0.00510226 0.0103935
0.0188973 0.0183303 -0.0111494
0.0181414 -0.00113384 -0.0296687
0.0119053 0.020598 0.0304246
-0.0103935 0.00718096 0.0262672
-0.0124722 0.0096376 0.0391173
-0.000188973 -0.0266451 -0.048566
-0.00188973 -0.0396842 0.0103935
0.0132281 -0.0670853 -0.0300466
0.0115273 0.0882502 -0.0219208
0.0062361 0.0506447 -0.0151178
-0.00566918 -0.0599043 0.00925966
-0.00718096 -0.0754001 0.0132281
0.0126612 0.000188973 -0.0096376
Vibration 15
-0.00340151 -0.00283459 0.0162516
-0.00245664 -0.00699199 0.00566918
0.00113384 -0.00982658 -0.0238105
0.00604712 -0.00642507 -0.0385504
0.00642507 -0.00132281 -0.020409
0.00226767 -0.000566918 0.000944863
0.00661404 -0.0020787 -0.0236216
0.00302356 0.0143619 -0.00359048
0.0041574 0.0381725 -0.013606
-0.0041574 -0.00302356 0.0245664
0 0.00188973 0.020409
0.00075589 0.00245664 0.0096376
-0.00359048 -0.0041574 0.00396842
-0.00340151 -0.0130391 0.0113384
-0.00453534 -0.0113384 0.020976
-0.00736993 0.000188973 -0.0158737
0.00151178 -0.00850377 -0.0258892
-0.0100155 -0.00264562 -0.0226767
-0.0107714 0.00510226 -0.0102045
0.00132281 0.00566918 -0.000566918
0.0132281 0.00170075 -0.00585815
0.0126612 -0.00566918 -0.0185193
0.00132281 0.0109604 0.0198421
0.00226767 -0.0217318 -0.0143619
-0.000377945 -0.000188973 -0.0527234
0.00340151 0.0147399 -0.00302356
0.0268341 0.00132281 0.0126612
0.0173855 0.0185193 0.0141729
0.0236216 0.00585815 0.0727545