[Molden Format]
[FREQ]
-2.0
15.6
16.7
23.7
27.5
33.2
41.9
48.6
54.8
62.8
74.2
91.6
93.5
99.5
107.8
122.2
135.3
140.0
151.5
164.8
172.6
191.0
215.3
221.2
238.6
259.6
266.4
276.1
293.1
301.8
309.0
321.7
336.5
349.4
353.8
356.2
357.0
383.9
385.9
418.9
440.3
459.7
487.6
506.4
509.7
519.0
540.6
546.6
565.0
584.2
601.2
614.7
618.0
623.2
638.6
647.4
657.7
676.5
707.9
718.5
721.8
748.7
766.2
779.3
818.9
831.0
844.9
848.9
868.4
881.7
882.6
897.6
901.9
928.5
968.8
973.4
978.8
989.3
1007.5
1008.2
1008.6
1014.5
1017.4
1019.5
1034.2
1046.6
1074.4
1074.6
1082.8
1092.8
1128.3
1175.2
1181.0
1181.5
1186.7
1188.6
1201.8
1206.3
1228.5
1257.3
1259.1
1265.0
1268.9
1270.1
1276.3
1284.1
1285.9
1295.6
1303.2
1310.4
1318.0
1323.4
1334.7
1335.4
1343.2
1349.2
1356.5
1362.4
1367.8
1371.9
1387.1
1396.2
1428.4
1501.1
1516.0
1528.2
1529.5
1531.8
1558.6
1569.9
1595.9
1605.2
1644.3
1680.5
1690.9
1699.1
1703.9
1706.6
1708.4
1708.9
1789.4
1804.6
1866.1
2439.0
2652.6
2653.8
2664.6
2666.1
2674.9
2730.4
2740.8
2743.4
2744.0
2745.5
2747.4
2747.8
2750.5
2751.4
2754.5
2759.7
2763.4
2768.3
2768.8
2773.2
2780.4
       
[FR-COORD]
C -1.03651 -2.26408 -1.81659
C 1.59398 -2.26408 -1.81659
C 2.89147 0.054991 -1.81659
N 1.65086 2.28014 -1.84343
C -0.905557 2.29583 -1.92091
C -2.35479 0.0438416 -1.87291
N -2.06793 4.65496 -2.10856
C -5.01307 0.157603 -1.82075
N -7.20326 0.265507 -1.70888
C -2.38861 -4.67858 -1.70397
C -1.98024 -6.49121 -3.59161
C -3.20516 -8.80159 -3.49051
C -4.85546 -9.28989 -1.46794
C -5.28632 -7.50864 0.424055
C -4.04307 -5.19334 0.283837
O -5.90747 -11.6262 -1.59077
C 5.66294 0.230736 -1.73496
C 7.08742 -1.51632 -0.361694
C 9.70299 -1.27594 -0.244153
C 10.9134 0.706758 -1.50214
C 9.4868 2.4523 -2.87692
C 6.8718 2.22024 -2.98974
C 13.71 0.997019 -1.3623
C -7.70044 -12.2783 0.298577
C -1.47701 6.53789 -0.667073
C -4.75096 4.88815 3.34444
C -2.45702 3.46443 4.11526
C -0.068975 4.3373 3.40377
C 0.197287 6.53713 1.70056
C -2.6836 1.32772 5.63743
C -0.514005 0.0778567 6.46286
C 1.86894 0.97491 5.78294
C 2.10005 3.10595 4.2534
O 1.61269 8.27209 2.04979
O -4.67065 7.17019 3.15074
O -2.53053 8.75472 -1.30845
H 2.62899 -4.04231 -1.80242
H -6.48611 3.8369 2.95081
H -0.699388 -6.07226 -5.15555
H -2.92341 -10.2304 -4.93653
H -6.57417 -7.87846 1.97193
H -4.36659 -3.77322 1.7446
H 6.15635 -3.05474 0.639294
H 10.8032 -2.63484 0.831101
H 10.4188 4.0083 -3.84805
H 5.74533 3.60522 -4.03759
H 14.231 2.47044 0.0132281
H 14.5246 1.55695 -3.19099
H 14.6728 -0.744363 -0.782347
H -8.26604 -14.1935 -0.274199
H -9.32655 -11.0018 0.250389
H -6.82134 -12.314 2.16903
H -4.53799 0.62172 6.19868
H -0.679923 -1.60305 7.64337
H 3.56742 0.0185193 6.4417
H 3.95916 3.80251 3.6912
H -2.24858 10.0652 0.0423299

[FR-NORM-COORD]
Vibration 1
0.0132281 0.00944863 -0.000944863
0.0130391 0.00642507 -0.00510226
0.0153068 0.00529123 -0.00793685
0.0177634 0.00680301 -0.00661404
0.0177634 0.00925966 -0.00453534
0.0154958 0.0105825 -0.00170075
0.020409 0.0103935 -0.00566918
0.0156847 0.0130391 0.00226767
0.0160627 0.0149288 0.0062361
0.00982658 0.0115273 0.00642507
-0.00510226 0.0109604 0.00377945
-0.00944863 0.013606 0.0109604
0.0020787 0.0168186 0.0211649
0.0173855 0.0173855 0.0241885
0.020976 0.0149288 0.0164406
-0.0041574 0.0192752 0.0268341
0.0156847 0.0020787 -0.0124722
0.0154958 0.00264562 -0.0117163
0.0160627 -0.00075589 -0.0164406
0.0166296 -0.00453534 -0.0221098
0.0166296 -0.00529123 -0.0230547
0.0160627 -0.00188973 -0.0181414
0.0171965 -0.00793685 -0.027401
0.0100155 0.020787 0.0406291
0.00774788 0.00453534 0.00680301
-0.0262672 -0.0166296 -0.0251334
-0.0323143 -0.0213539 -0.0158737
-0.0268341 -0.0187083 0.00548021
-0.0149288 -0.00661404 0.0228657
-0.0438416 -0.0294797 -0.0289128
-0.0502667 -0.0360938 -0.0222988
-0.0451645 -0.0349599 -0.00283459
-0.0334482 -0.0257003 0.0119053
-0.0228657 -0.00548021 0.0489439
-0.0222988 -0.0160627 -0.0185193
0.0143619 0.0075589 0.0062361
0.0113384 0.00548021 -0.00548021
-0.0253223 -0.0134171 -0.0387394
-0.013606 0.00850377 -0.00377945
-0.0215429 0.0132281 0.00907068
0.0262672 0.0198421 0.0321253
0.0328812 0.0156847 0.0183303
0.0151178 0.00566918 -0.00736993
0.0160627 -0.000188973 -0.0160627
0.0171965 -0.00831479 -0.02759
0.0162516 -0.00226767 -0.0188973
0.0213539 -0.0041574 -0.0328812
0.0149288 -0.0147399 -0.0304246
0.0158737 -0.00736993 -0.0232436
0.0041574 0.0211649 0.0449755
0.0105825 0.0219208 0.0527234
0.0239995 0.0200311 0.0340151
-0.048188 -0.0308025 -0.0444086
-0.0591484 -0.0423299 -0.0323143
-0.0502667 -0.0408181 0.00188973
-0.0291018 -0.0236216 0.0289128
0.00453534 0.00245664 0.0132281
Vibration 2
0.00434637 -0.00377945 0.0102045
0.00472431 -0.00170075 0.0107714
0.00359048 -0.00113384 0.00604712
0.00245664 -0.00188973 0.00642507
0.00245664 -0.00340151 0.00774788
0.00340151 -0.0041574 0.00793685
0.00170075 -0.00377945 0.00718096
0.00340151 -0.00283459 0.00453534
0.00340151 -0.00075589 0.00170075
0.00736993 -0.00529123 0.00812582
0.0487549 -0.0224877 0.0328812
0.0519675 -0.0241885 0.0292908
0.0109604 -0.00888171 -0.000566918
-0.0304246 0.00736993 -0.0251334
-0.0308025 0.00793685 -0.0200311
0.0179524 -0.0119053 -0.000377945
0.00377945 0.000188973 -0.00377945
0.0100155 0.00529123 -0.00377945
0.0105825 0.00604712 -0.0166296
0.00472431 0.00151178 -0.0294797
-0.00170075 -0.00340151 -0.0291018
-0.0020787 -0.00396842 -0.0162516
0.00548021 0.0020787 -0.0442196
-0.0372276 0.0113384 -0.0445975
0.00377945 -0.00321253 0.00566918
-0.00566918 0.0222988 0.00170075
-0.0130391 0.0143619 0.00907068
-0.00793685 0.00113384 0.0103935
0.00510226 -0.00491329 0.00453534
-0.0255113 0.0192752 0.0145509
-0.0325033 0.0113384 0.020976
-0.027401 -0.00170075 0.0221098
-0.0149288 -0.00699199 0.0168186
0.0156847 -0.0124722 -0.00075589
0.00113384 0.0222988 0.00566918
0.00453534 -0.00283459 0.00566918
0.0062361 -0.00075589 0.013984
-0.00699199 0.02759 -0.0075589
0.0786126 -0.0340151 0.0542351
0.0852266 -0.0370386 0.048566
-0.0612271 0.0190862 -0.0478101
-0.0616051 0.0190862 -0.0376055
0.0147399 0.00907068 0.00604712
0.0156847 0.0100155 -0.0168186
-0.0062361 -0.00680301 -0.0389284
-0.00699199 -0.00774788 -0.0158737
0.0119053 0.0102045 -0.055369
-0.00321253 -0.00869274 -0.0514005
0.00812582 0.00548021 -0.0383614
-0.0272121 0.00774788 -0.0423299
-0.0319364 0.0160627 -0.101667
-0.089573 0.0262672 -0.0196532
-0.0296687 0.0296687 0.013606
-0.0423299 0.0153068 0.0253223
-0.0330702 -0.00812582 0.02759
-0.0107714 -0.0171965 0.0179524
0.00377945 -0.00321253 0.0062361
Vibration 3
-0.000944863 -0.00434637 -0.00396842
-0.00113384 -0.00453534 -0.00850377
-0.00132281 -0.0041574 -0.00434637
-0.0020787 -0.00472431 0.000188973
-0.00226767 -0.00472431 0.00283459
-0.00188973 -0.00472431 0.0041574
-0.00132281 -0.00396842 0.00453534
-0.00170075 -0.0062361 0.0141729
-0.00132281 -0.00718096 0.0219208
-0.000377945 -0.00510226 -0.00812582
-0.0272121 0.0134171 -0.0313695
-0.0245664 0.0117163 -0.0349599
0.00736993 -0.00869274 -0.013795
0.0332592 -0.0262672 0.00850377
0.0283459 -0.0232436 0.0107714
0.00793685 -0.00869274 -0.0198421
-0.00151178 -0.00321253 -0.00491329
-0.000377945 -0.0062361 -0.0100155
-0.000377945 -0.00529123 -0.0100155
-0.00170075 -0.00113384 -0.00453534
-0.00283459 0.00188973 0.000377945
-0.00283459 0.00075589 0.000188973
-0.00188973 0.000188973 -0.0041574
0.0542351 -0.0370386 0.0141729
0.00944863 -0.00340151 0
-0.00132281 0.054991 0.0041574
-0.0164406 0.0336371 0.00982658
-0.00661404 0.00302356 0.00566918
0.0188973 -0.0096376 -0.00680301
-0.0408181 0.0428968 0.0192752
-0.05518 0.0222988 0.0255113
-0.0449755 -0.0075589 0.0219208
-0.020598 -0.0175745 0.0119053
0.0447865 -0.0279679 -0.0222988
0.0185193 0.0544241 0.00661404
0.0130391 -0.00132281 0.00245664
-0.00113384 -0.00453534 -0.0151178
-0.00944863 0.0704868 -0.00188973
-0.0500777 0.0287238 -0.0461093
-0.0459203 0.0257003 -0.0529123
0.0565028 -0.041574 0.0241885
0.0476211 -0.0357158 0.0270231
0.000566918 -0.0096376 -0.0141729
0.000566918 -0.00774788 -0.013984
-0.00396842 0.00510226 0.00472431
-0.00359048 0.00302356 0.0041574
-0.00264562 -0.00264562 -0.000944863
-0.00245664 0.00472431 -0.00302356
-0.00075589 -0.000566918 -0.00812582
0.0525344 -0.034771 0.00831479
0.0457314 -0.0459203 0.062361
0.0959981 -0.0496998 -0.00585815
-0.0491329 0.0665184 0.0219208
-0.0742662 0.0300466 0.0340151
-0.0561249 -0.0236216 0.02759
-0.0124722 -0.041385 0.00907068
0.0153068 -0.00302356 0.00377945
Vibration 4
-0.00699199 0.00283459 -0.0171965
-0.00661404 0.00321253 -0.0170075
-0.00680301 0.00302356 -0.0160627
-0.00793685 0.00264562 -0.0153068
-0.00774788 0.00264562 -0.0153068
-0.0075589 0.00264562 -0.0200311
-0.00642507 0.00491329 -0.00264562
-0.00774788 0.00302356 -0.0260782
-0.00793685 0.00340151 -0.0319364
-0.00566918 0.00264562 -0.00718096
0.0075589 -0.013606 0.0113384
0.0115273 -0.0151178 0.0258892
0.00132281 0 0.0213539
-0.0134171 0.0170075 0.00188973
-0.0162516 0.0175745 -0.0119053
0.00793685 -0.00377945 0.0383614
-0.00736993 0.00793685 -0.00869274
-0.00604712 0.00188973 -0.0175745
-0.00774788 0.0122832 -0.00302356
-0.0102045 0.0287238 0.020787
-0.0109604 0.0330702 0.0272121
-0.00925966 0.0224877 0.0122832
-0.0124722 0.0421409 0.0398732
-0.00396842 0.0119053 0.0325033
0.0075589 -0.00359048 0.00340151
0.0145509 0.0128501 0.0105825
0.00642507 -0.00718096 -0.00321253
0.0105825 -0.0238105 -0.00944863
0.0224877 -0.0230547 -0.00699199
-0.00491329 -0.0103935 -0.00944863
-0.0117163 -0.0302356 -0.0211649
-0.00718096 -0.0461093 -0.0260782
0.00396842 -0.0428968 -0.0198421
0.0434637 -0.0389284 -0.0132281
0.0291018 0.0130391 0.0202201
0.0103935 0.00283459 0.0217318
-0.00661404 0.00321253 -0.0156847
0.00566918 0.0268341 0.0115273
0.0147399 -0.0253223 0.0141729
0.0224877 -0.0279679 0.0408181
-0.0219208 0.0292908 -0.00226767
-0.0266451 0.0298577 -0.0260782
-0.00396842 -0.0109604 -0.0353379
-0.00699199 0.00774788 -0.00944863
-0.0128501 0.0451645 0.0444086
-0.00982658 0.0260782 0.0171965
-0.0287238 0.0391173 0.0495108
-0.00396842 0.0540462 0.0474321
-0.00736993 0.0447865 0.0387394
0.00642507 0.00359048 0.0500777
-0.0075589 0.00642507 0.00566918
-0.0181414 0.0357158 0.0396842
-0.00831479 0.00226767 -0.00491329
-0.020787 -0.0332592 -0.0266451
-0.0122832 -0.0614161 -0.0349599
0.0075589 -0.0555579 -0.0238105
0.0183303 -0.00642507 0.0291018
Vibration 5
-0.0177634 0.0166296 -0.0107714
-0.0175745 0.0120942 -0.00585815
-0.0122832 0.00869274 0.00132281
-0.00718096 0.0117163 0.00453534
-0.00718096 0.0166296 -0.000188973
-0.0124722 0.0194642 -0.00925966
-0.00264562 0.0190862 0.00340151
-0.0124722 0.0255113 -0.0170075
-0.0124722 0.0296687 -0.0232436
-0.0147399 0.0149288 -0.013606
0.013984 0.00510226 0.00170075
0.0362827 -0.00604712 0.0103935
0.0281569 -0.0075589 0.00340151
-0.00850377 0.00548021 -0.0173855
-0.0294797 0.0164406 -0.0255113
0.0595264 -0.0224877 0.0187083
-0.0117163 -0.00340151 0.00453534
-0.0215429 -0.0200311 -0.00642507
-0.0196532 -0.0400622 -0.0107714
-0.00774788 -0.0427078 -0.00340151
0.00170075 -0.0232436 0.0113384
-0.000188973 -0.00377945 0.0151178
-0.00491329 -0.0676522 -0.0117163
0.0723765 -0.0366607 0.0257003
-0.00226767 0.0160627 0.00699199
-0.00226767 0.00283459 0.00491329
-0.000944863 0.00321253 0.00132281
-0.0020787 0.00774788 0.00321253
-0.00491329 0.0124722 0.00907068
0.00170075 -0.00075589 -0.00377945
0.00321253 -0.000188973 -0.00718096
0.0020787 0.00396842 -0.00548021
-0.000566918 0.00812582 -0.000188973
-0.00944863 0.0147399 0.0154958
-0.00340151 0.00302356 0.00642507
0.000566918 0.0179524 0.00907068
-0.0211649 0.00982658 -0.00718096
-0.00245664 0.00245664 0.00604712
0.0211649 0.00566918 0.0075589
0.0614161 -0.0145509 0.0238105
-0.0196532 0.00661404 -0.0262672
-0.0559359 0.0251334 -0.0396842
-0.0304246 -0.0185193 -0.0120942
-0.0272121 -0.0540462 -0.020598
0.0109604 -0.0241885 0.0188973
0.00736993 0.0102045 0.0255113
0.0130391 -0.0842818 -0.000566918
-0.00718096 -0.0583925 -0.00982658
-0.0175745 -0.0810692 -0.0309915
0.11225 -0.055369 0.0489439
0.0462983 -0.0704868 0.00850377
0.0710537 0.00434637 0.0272121
0.00264562 -0.0041574 -0.00491329
0.00529123 -0.00340151 -0.0113384
0.00340151 0.00434637 -0.00831479
-0.00132281 0.0115273 0.00113384
0.00245664 0.0166296 0.0100155
Vibration 6
-0.0075589 0.00604712 -0.00283459
-0.0075589 0.00434637 0.0020787
-0.0075589 0.00396842 -0.00264562
-0.00453534 0.00491329 -0.00661404
-0.00491329 0.00642507 -0.00377945
-0.00585815 0.00699199 -0.00566918
-0.00302356 0.00793685 0.00321253
-0.00604712 0.00793685 -0.00982658
-0.0062361 0.00831479 -0.013606
-0.00736993 0.00585815 -0.00472431
-0.00453534 0.00736993 -0.00566918
0.00075589 0.00453534 -0.00548021
0.00359048 0.000188973 -0.0041574
-0.00113384 -0.000188973 -0.00491329
-0.00680301 0.00283459 -0.00529123
0.0111494 -0.00340151 -0.00283459
-0.00736993 0.000944863 -0.00264562
-0.0192752 0.0600933 0.0846597
-0.0198421 0.0629279 0.0901399
-0.0100155 0.00302356 0.00472431
0.00113384 -0.0591484 -0.0857936
0.00075589 -0.0582036 -0.0873053
-0.0105825 0.00661404 0.0130391
0.0245664 -0.013795 0.0062361
0.00434637 0.00302356 0.00718096
0.00774788 0 0.00661404
0.00604712 -0.00566918 0.00113384
0.00699199 -0.00888171 0.000377945
0.0102045 -0.00718096 0.00302356
0.00340151 -0.0075589 -0.00188973
0.00170075 -0.0124722 -0.00510226
0.00283459 -0.0151178 -0.00472431
0.00529123 -0.013606 -0.00226767
0.0171965 -0.0128501 0.00283459
0.0107714 0.000377945 0.0130391
0.00661404 0.00680301 0.0164406
-0.00661404 0.00491329 0.00869274
0.00585815 0.00377945 0.00491329
-0.00604712 0.0103935 -0.00604712
0.00359048 0.00529123 -0.00566918
-0.000566918 -0.00302356 -0.00510226
-0.0103935 0.00245664 -0.00566918
-0.0287238 0.107147 0.147588
-0.0281569 0.112628 0.161572
0.00888171 -0.106014 -0.153257
0.00793685 -0.102612 -0.15269
-0.0181414 0.0168186 0.00510226
-0.00151178 -0.0062361 0.013606
-0.0128501 0.0109604 0.0304246
0.034393 -0.0179524 0.0103935
0.0160627 -0.0243775 0.0128501
0.0334482 -0.00680301 0.00226767
0.00245664 -0.00529123 -0.00170075
-0.000377945 -0.013984 -0.00736993
0.00151178 -0.0183303 -0.0062361
0.0062361 -0.0158737 -0.00245664
0.0128501 0.00245664 0.0192752
Vibration 7
-0.00453534 0.00188973 0.0192752
-0.0041574 0.000188973 -0.00188973
-0.0020787 -0.00113384 -0.0111494
0.000566918 0.000188973 -0.0164406
-0.000188973 0.0020787 0.00453534
-0.00226767 0.00359048 0.0355268
0.00226767 0.00226767 -0.0062361
-0.00075589 0.00982658 0.0871164
0.00170075 0.0162516 0.130958
-0.00113384 0 0.0166296
0.0147399 0.00264562 0.0166296
0.0221098 -0.00132281 0.00680301
0.0113384 -0.00850377 -0.00359048
-0.00453534 -0.0120942 -0.00396842
-0.0102045 -0.00812582 0.00680301
0.0198421 -0.0117163 -0.0130391
-0.00188973 -0.00453534 -0.00831479
-0.00831479 -0.00491329 -0.0020787
-0.00907068 -0.00434637 0.0115273
-0.00321253 -0.00359048 0.0183303
0.00359048 -0.00529123 0.00907068
0.0041574 -0.00585815 -0.00434637
-0.00453534 -0.00075589 0.0370386
-0.00396842 -0.0130391 -0.0360938
0.000944863 0.00831479 -0.013795
0.00170075 0.0292908 0.0109604
-0.00302356 0.00888171 -0.013606
-0.00264562 0.00321253 -0.0200311
-0.00812582 0.0143619 -0.00680301
-0.00472431 -0.0062361 -0.0353379
-0.00585815 -0.027779 -0.0646286
-0.00548021 -0.0325033 -0.0697309
-0.00359048 -0.0160627 -0.0468652
-0.0226767 0.0234326 0.00585815
0.0228657 0.02759 -0.00170075
0.00661404 0.00718096 -0.0260782
-0.00529123 -0.000566918 -0.00925966
-0.0151178 0.0461093 0.0394953
0.0215429 0.00869274 0.0238105
0.0353379 0.00132281 0.00699199
-0.0122832 -0.0179524 -0.0117163
-0.0222988 -0.0119053 0.00774788
-0.0128501 -0.00548021 -0.00699199
-0.0141729 -0.00396842 0.0173855
0.00831479 -0.00566918 0.0130391
0.00907068 -0.00661404 -0.0107714
-0.0149288 -0.00661404 0.0472432
0.00680301 0.00850377 0.0449755
-0.0062361 -0.00245664 0.0351489
0.00132281 -0.0117163 -0.0459203
-0.00226767 -0.0117163 -0.0536682
-0.0266451 -0.0168186 -0.0255113
-0.00491329 -0.0020787 -0.0304246
-0.00699199 -0.0410071 -0.0835259
-0.0062361 -0.0496998 -0.0925966
-0.00359048 -0.0200311 -0.0512116
0.00585815 0.0124722 -0.0306136
Vibration 8
0.0156847 -0.00302356 -0.00359048
0.0153068 0.00321253 0.00510226
0.00944863 0.00680301 0.00680301
0.00491329 0.0041574 0.00340151
0.00472431 -0.00264562 -0.00453534
0.0105825 -0.00661404 -0.0132281
-0.00736993 -0.00850377 -0.00377945
0.0096376 -0.0154958 -0.034204
0.00831479 -0.0238105 -0.0532903
0.0179524 -0.0041574 0.000188973
0.00529123 -0.00245664 -0.00359048
-0.00151178 0.00113384 -0.00151178
0.00510226 0.00377945 0.00453534
0.0219208 0.00075589 0.0113384
0.0279679 -0.00283459 0.00888171
-0.00661404 0.00907068 0.00396842
0.00944863 0.00566918 0.0111494
0.00472431 0.00396842 0.0143619
0.00585815 -0.00812582 0.00812582
0.0124722 -0.0185193 -0.00188973
0.0170075 -0.013606 -0.000566918
0.0154958 -0.00132281 0.0062361
0.0151178 -0.0362827 -0.0151178
-0.0183303 0.0222988 -0.00264562
-0.027779 -0.00604712 0.000377945
-0.00585815 0.0434637 0.0648176
-0.00869274 0.0202201 0.0272121
-0.0122832 0.00434637 -0.00396842
-0.0262672 0.00888171 -0.00075589
-0.00321253 0.013795 0.0192752
-0.000566918 -0.00850377 -0.0213539
-0.00359048 -0.0236216 -0.0519675
-0.00925966 -0.0166296 -0.0432747
-0.0398732 0.0192752 -0.00075589
0.0164406 0.041574 0.0498888
-0.0546131 -0.0168186 0.0062361
0.0192752 0.00548021 0.00982658
-0.0264562 0.0627389 0.105447
-0.000566918 -0.00377945 -0.00869274
-0.0128501 0.00245664 -0.00510226
0.0296687 0.00132281 0.0179524
0.0400622 -0.00396842 0.0126612
-0.000188973 0.0109604 0.020976
0.00188973 -0.0102045 0.0096376
0.0221098 -0.0200311 -0.00585815
0.0192752 0.00170075 0.0062361
0.0309915 -0.0362827 -0.0211649
0.0103935 -0.0462983 -0.0202201
0.0062361 -0.041196 -0.0153068
-0.0374166 0.0300466 -0.0102045
-0.00491329 0.0394953 -0.0020787
-0.0228657 0.00699199 -0.000944863
-0.000188973 0.0260782 0.0440306
0.00377945 -0.0141729 -0.0287238
-0.00132281 -0.041196 -0.0835259
-0.0120942 -0.0291018 -0.0684081
-0.0682191 -0.0164406 0.00907068
Vibration 9
-0.00774788 -0.000377945 0.0359048
-0.0075589 -0.00188973 0.0582036
-0.00680301 -0.00226767 0.048377
-0.00774788 -0.00321253 0.0338261
-0.00736993 -0.00151178 0.0190862
-0.00793685 -0.000944863 0.0130391
0.00170075 0.0020787 0.0062361
-0.00869274 -0.00377945 -0.020598
-0.0103935 -0.0075589 -0.048566
-0.00869274 -0.000566918 0.0257003
-0.00850377 0.0119053 0.013606
-0.0075589 0.0107714 -0.00113384
-0.00566918 -0.00340151 -0.00283459
-0.00604712 -0.0156847 0.00850377
-0.00831479 -0.0132281 0.0224877
-0.00396842 -0.00340151 -0.0190862
-0.00699199 0.00377945 0.0370386
0.00944863 0.00642507 0.0230547
0.0105825 0.0107714 -0.00377945
-0.00510226 0.0124722 -0.0160627
-0.0222988 0.013606 0.00283459
-0.0224877 0.00869274 0.0291018
-0.00340151 0.013606 -0.0532903
0.0117163 -0.0262672 -0.0122832
0.0166296 0.00661404 -0.00434637
0.0100155 0.00925966 -0.00736993
0.00548021 -0.00113384 -0.0141729
0.00774788 0.000566918 -0.00510226
0.00982658 0.00566918 0.00151178
0.000566918 -0.0130391 -0.0317474
-0.0020787 -0.0228657 -0.0394953
0 -0.0190862 -0.0270231
0.00491329 -0.00680301 -0.00925966
0.00472431 0.00812582 0.00925966
0.0222988 0.00831479 -0.0160627
0.0402512 0.0126612 -0.020976
-0.00888171 -0.00226767 0.0771008
0.00151178 0.0187083 0.00585815
-0.00907068 0.0226767 0.0162516
-0.00793685 0.020598 -0.0107714
-0.00548021 -0.0266451 0.00642507
-0.0100155 -0.0217318 0.0300466
0.0222988 0.0041574 0.0313695
0.0238105 0.0115273 -0.0164406
-0.034771 0.0168186 -0.0041574
-0.0351489 0.00812582 0.041385
0.0141729 0.0238105 -0.0708647
-0.0270231 0.000188973 -0.0680301
0.0041574 0.0179524 -0.0529123
0.0151178 -0.0234326 -0.0247554
0.00642507 -0.0321253 0.0096376
0.0247554 -0.0387394 -0.0187083
-0.00113384 -0.0151178 -0.0398732
-0.00585815 -0.0334482 -0.054991
-0.0020787 -0.0262672 -0.0319364
0.00661404 -0.00434637 -0.000566918
0.0519675 0.0190862 -0.0294797
Vibration 10
0.000944863 0.0130391 0.0096376
0.000188973 0.0219208 0.0120942
-0.00699199 0.0262672 0.00604712
-0.0141729 0.0215429 -0.00888171
-0.0145509 0.0120942 -0.00850377
-0.00736993 0.00812582 0.00151178
-0.0239995 0.00925966 -0.00453534
-0.00774788 -0.00340151 0.00869274
-0.00774788 -0.0130391 0.0158737
0.0115273 0.00774788 0.0147399
0.00491329 0.0164406 0.00510226
0.0102045 0.013795 0.00321253
0.0221098 0.00340151 0.0103935
0.0353379 -0.00812582 0.0241885
0.0298577 -0.00510226 0.0264562
0.0222988 0.00359048 0.00472431
-0.0075589 0.0249444 0.0162516
-0.0181414 0.0168186 0.0177634
-0.0160627 -0.00548021 0.00982658
-0.00302356 -0.0187083 0.00151178
0.00661404 -0.00264562 0.0117163
0.00396842 0.0192752 0.0192752
0.00151178 -0.0532903 -0.020409
-0.0258892 0.0234326 -0.034204
-0.0147399 0.00377945 0.000188973
-0.00132281 -0.0185193 -0.0294797
0.00170075 -0.0113384 -0.0228657
0.00302356 -0.00661404 -0.0122832
0.0145509 -0.0141729 -0.020598
-0.00113384 -0.0113384 -0.0236216
-0.00283459 -0.00585815 -0.0105825
-0.00151178 0.000566918 0.00340151
0.00132281 -0.000566918 0.00245664
0.0508336 -0.0389284 -0.0461093
-0.0173855 -0.0153068 0.00321253
-0.0266451 0.00510226 0.0264562
0.00566918 0.0249444 0.0187083
0.0119053 -0.0279679 -0.0638727
-0.00585815 0.0258892 -0.00113384
0.00340151 0.020409 -0.00491329
0.0500777 -0.0198421 0.0336371
0.0394953 -0.0128501 0.0359048
-0.0279679 0.0258892 0.0226767
-0.0243775 -0.013795 0.00793685
0.0164406 -0.00888171 0.0113384
0.0117163 0.0296687 0.0245664
0.0313695 -0.0604712 -0.0241885
-0.0062361 -0.0633058 -0.0270231
-0.0156847 -0.0657625 -0.0289128
-0.0487549 0.0370386 -0.0570697
-0.00283459 0.0521564 -0.0557469
-0.0608492 -0.00396842 -0.0181414
-0.00264562 -0.0158737 -0.0338261
-0.00548021 -0.00604712 -0.0111494
-0.00264562 0.0062361 0.0145509
0.00264562 0.00434637 0.0126612
-0.0190862 -0.00472431 0.0340151
Vibration 11
-0.0126612 0.00170075 -0.0156847
-0.0128501 -0.00188973 -0.0221098
-0.0105825 -0.00359048 -0.0126612
-0.00774788 -0.00245664 0.0041574
-0.00831479 0.00188973 0.00510226
-0.0109604 0.00283459 -0.0075589
0.00377945 0.00718096 0.0103935
-0.0111494 0.00151178 -0.0166296
-0.0117163 -0.0020787 -0.027401
-0.00604712 -0.0020787 -0.0096376
-0.0239995 0.00548021 -0.020787
-0.00396842 -0.00453534 -0.00472431
0.0323143 -0.020598 0.020787
0.0508336 -0.0283459 0.0321253
0.0313695 -0.0185193 0.0170075
0.0572587 -0.0334482 0.041385
-0.0105825 -0.00699199 -0.0156847
-0.0132281 -0.00774788 -0.013984
-0.013984 -0.00453534 -0.00566918
-0.0130391 -0.000944863 0.00075589
-0.0102045 -0.00472431 -0.00699199
-0.0096376 -0.00774788 -0.0151178
-0.0149288 0.00812582 0.0181414
-0.0544241 0.0243775 -0.0444086
0.0183303 0.00831479 0.00340151
0.00491329 0.00661404 0.00699199
0.00170075 0.00377945 0.0096376
0.00226767 0.00245664 0.00982658
-0.000944863 0.00888171 0.0177634
0.000377945 0.00453534 0.0105825
-0.000188973 0.00359048 0.0105825
0.000377945 0.00113384 0.00869274
0.00170075 0.00075589 0.00831479
-0.0222988 0.0221098 0.0398732
0.0164406 0.0041574 -0.0200311
0.0504557 0.0173855 -0.0177634
-0.0147399 -0.00321253 -0.0328812
-0.00359048 0.0124722 0.0302356
-0.0540462 0.0190862 -0.041574
-0.0170075 0.000566918 -0.0124722
0.0833369 -0.0438416 0.055369
0.0464873 -0.0243775 0.0258892
-0.0149288 -0.00944863 -0.0181414
-0.0156847 -0.00359048 -0.00283459
-0.00869274 -0.00453534 -0.00529123
-0.00812582 -0.00982658 -0.0192752
-0.0289128 0.0107714 0.020598
-0.00491329 0.00944863 0.0230547
-0.0128501 0.0117163 0.0257003
-0.0782347 0.0370386 -0.0629279
-0.0177634 0.0680301 -0.127745
-0.145131 0.00925966 -0.0020787
0.000188973 0.00604712 0.0113384
-0.00075589 0.00472431 0.0120942
-0.000188973 -0.000377945 0.00812582
0.0020787 -0.00113384 0.0075589
0.0568808 0.0228657 -0.0241885
Vibration 12
0.00226767 0.00661404 -0.00245664
0.00188973 0.013606 0.00075589
-0.00434637 0.0173855 -0.00132281
-0.0107714 0.0126612 -0.0162516
-0.0117163 0.00491329 -0.0185193
-0.00548021 0.00245664 -0.00718096
-0.00869274 0.00604712 -0.0247554
-0.00548021 -0.0062361 0.00793685
-0.00510226 -0.013795 0.0226767
0.00699199 0.00453534 0.000188973
0.0124722 0.00226767 0.00359048
0.00869274 0.0041574 0.00132281
0 0.00907068 -0.00472431
-0.0020787 0.00982658 -0.00585815
0.00170075 0.00774788 -0.00340151
-0.00925966 0.013606 -0.0105825
-0.00529123 0.0238105 0.0132281
-0.0107714 0.0228657 0.0179524
-0.0096376 0.0113384 0.0124722
-0.00302356 0.00075589 0.00245664
0.00113384 0.0120942 0.0126612
-0.000188973 0.0234326 0.0177634
0.00132281 -0.0272121 -0.0241885
0.0096376 0.00585815 0.00472431
0.00264562 -0.00132281 -0.0185193
-0.00170075 -0.0173855 0.020409
-0.00170075 -0.0115273 0.027779
-0.00680301 -0.0353379 -0.0162516
-0.0130391 -0.0260782 -0.00736993
0.00604712 0.0181414 0.0719986
0.00888171 0.0151178 0.0583925
0.00491329 -0.0228657 -0.00699199
-0.00321253 -0.048566 -0.0434637
-0.0234326 -0.0224877 0.0194642
0.0160627 -0.0245664 -0.0606602
0.0436527 0.0145509 -0.027779
0.00661404 0.0164406 0.00661404
-0.0188973 -0.013606 0.0880612
0.0185193 -0.00075589 0.00793685
0.0119053 0.00245664 0.00377945
-0.00774788 0.0128501 -0.00982658
0 0.00888171 -0.00472431
-0.0156847 0.0289128 0.0224877
-0.013795 0.00831479 0.0128501
0.00585815 0.00944863 0.0128501
0.00321253 0.0294797 0.0219208
0.0304246 -0.0302356 -0.0321253
-0.0109604 -0.0393063 -0.0334482
-0.0111494 -0.0364717 -0.0308025
0.00718096 0.00642507 0.00510226
0.00718096 0.00340151 0.0232436
0.0272121 0.00226767 -0.00359048
0.00944863 0.0438416 0.115651
0.0149288 0.041574 0.0969429
0.00774788 -0.0308025 -0.0260782
-0.00680301 -0.075778 -0.089384
0.0440306 0.0075589 -0.020598
Vibration 13
-0.00888171 0.0103935 0.0387394
-0.00812582 -0.0020787 0.0442196
0.00453534 -0.0096376 0.00075589
0.013984 -0.00340151 -0.0281569
0.0151178 0.00680301 -0.0190862
0.00264562 0.0145509 0.00548021
0.0162516 0.0075589 -0.0291018
0.00321253 0.0353379 -0.0122832
0.00359048 0.0570697 -0.0296687
-0.0134171 0.0132281 0.0396842
-0.00944863 0.0289128 0.0243775
-0.000377945 0.0247554 0.00736993
0.00434637 0.00321253 0.0062361
-0.00151178 -0.0126612 0.0194642
-0.0109604 -0.00529123 0.0359048
0.0190862 -0.00226767 -0.013606
0.00566918 -0.0192752 -0.0154958
0.0109604 -0.0221098 -0.0241885
0.00982658 -0.0128501 -0.0183303
0.00472431 0.000188973 -0.00283459
0.00188973 -0.00793685 -0.0102045
0.00321253 -0.0181414 -0.0170075
0.000377945 0.0268341 0.027779
0.00548021 -0.0236216 -0.034582
-0.00661404 -0.00132281 -0.00944863
-0.00736993 -0.0124722 0.00585815
-0.00321253 -0.00491329 0.00774788
-0.00642507 -0.013984 -0.0122832
-0.00661404 -0.0122832 -0.0107714
0.00226767 0.00925966 0.0291018
0.00453534 0.0105825 0.0241885
0.0020787 -0.00529123 -0.00585815
-0.00377945 -0.0177634 -0.0238105
0.000188973 -0.0181414 -0.00869274
-0.0156847 -0.0126612 0.00359048
-0.0264562 -0.00453534 0.0107714
-0.0181414 -0.00774788 0.0738883
-0.00321253 -0.0194642 0.00529123
-0.0122832 0.0459203 0.0264562
0.00264562 0.0368497 -0.0041574
0.00170075 -0.0304246 0.0179524
-0.0164406 -0.0162516 0.0449755
0.0156847 -0.0298577 -0.0315584
0.0128501 -0.0134171 -0.0221098
-0.00188973 -0.00377945 -0.00718096
0.00132281 -0.0219208 -0.020409
-0.0294797 0.013795 0.0532903
0.013606 0.0604712 0.0440306
0.0126612 0.0291018 0.0143619
0.0120942 -0.0185193 -0.0587705
0.00434637 -0.0251334 -0.0332592
-0.00831479 -0.0417629 -0.0285349
0.00453534 0.0196532 0.0493218
0.00869274 0.0232436 0.0428968
0.0041574 -0.00699199 -0.013984
-0.00585815 -0.0285349 -0.0449755
-0.0360938 -0.0143619 0.0221098
Vibration 14
0.00377945 -0.000566918 0.00736993
0.00321253 0.00434637 0.00188973
-0.00132281 0.00718096 -0.00396842
-0.00510226 0.00453534 -0.000566918
-0.00604712 -0.000188973 0.00491329
-0.00113384 -0.00302356 0.00510226
-0.00642507 -0.000377945 0.00793685
-0.00188973 -0.0147399 -0.00321253
-0.00302356 -0.0283459 -0.0130391
0.00793685 -0.00264562 0.0109604
0.0120942 -0.00340151 0.0124722
0.00699199 -0.00075589 0.00718096
-0.00226767 0.00245664 0.000566918
-0.000188973 0 0.00321253
0.00472431 -0.00226767 0.00831479
-0.0154958 0.00925966 -0.0115273
-0.00151178 0.00699199 -0.00982658
-0.00453534 0.00566918 -0.00699199
-0.00529123 0.00170075 -0.00680301
-0.00170075 -0.000188973 -0.00850377
0.00264562 -0.00132281 -0.0124722
0.00132281 0.00170075 -0.013606
-0.00188973 -0.0103935 0.0156847
0.000188973 -0.000566918 0
0.00226767 0.00170075 0.0020787
0.00151178 0.00283459 -0.00245664
0.000188973 0.00113384 -0.00132281
0.00113384 0.00245664 0.00283459
0.00132281 0.00264562 0.00321253
-0.00188973 -0.000944863 -0.00472431
-0.00264562 -0.00113384 -0.00264562
-0.00188973 0.00132281 0.00340151
0 0.00302356 0.00604712
-0.00151178 0.00453534 0.00529123
0.00434637 0.00264562 -0.00472431
0.0115273 0.0041574 -0.00396842
0.00661404 0.00642507 0.00132281
0.000188973 0.00472431 -0.000944863
0.0181414 -0.00529123 0.0168186
0.00850377 -0.000566918 0.00736993
-0.00453534 0.00113384 0
0.00491329 -0.00321253 0.00925966
-0.00774788 0.00907068 -0.00491329
-0.0062361 0.00264562 -0.00472431
0.00359048 -0.00321253 -0.0147399
0.00396842 0.00132281 -0.0170075
0.0020787 -0.328623 0.355457
-0.0194642 0.418763 0.140596
0.0105825 -0.143052 -0.399866
0.000377945 0.000188973 -0.00226767
-0.00245664 -0.00340151 0.0156847
0.013795 -0.00491329 -0.00642507
-0.00245664 -0.00245664 -0.00907068
-0.00396842 -0.00302356 -0.00548021
-0.00264562 0.00151178 0.00585815
0.00075589 0.00472431 0.0105825
0.0154958 0.00661404 -0.00680301
Vibration 15
-0.00188973 -0.00510226 -0.0187083
-0.000566918 -0.013795 0.00264562
0.00642507 -0.0177634 0.0247554
0.0120942 -0.013606 0.0185193
0.0143619 -0.00566918 -0.00359048
0.00680301 -0.000944863 -0.0109604
0.0145509 -0.0062361 -0.0151178
0.00812582 0.0239995 0.00774788
0.0109604 0.0542351 0.0325033
-0.0156847 0.00151178 -0.0321253
-0.0340151 0.00283459 -0.0370386
-0.027401 -0.00075589 -0.0215429
-0.00170075 -0.00491329 -0.00188973
-0.00453534 0.00510226 -0.0119053
-0.0102045 0.00661404 -0.0258892
0.0364717 -0.0247554 0.0396842
0.0062361 -0.00925966 0.0359048
0.0211649 0.00472431 0.0370386
0.0217318 0.0168186 0.0187083
0.00680301 0.0132281 -0.00170075
-0.0102045 0.00944863 0.0115273
-0.00944863 -0.00226767 0.0302356
0.00925966 0.0111494 -0.0436527
-0.0151178 0.0126612 0.0041574
-0.00377945 -0.00718096 -0.00699199
-0.00434637 -0.00434637 0.00264562
-0.0020787 -0.00132281 0.00170075
-0.00359048 -0.00377945 -0.00548021
-0.00321253 -0.00585815 -0.00831479