[Molden Format]
[FREQ]
16.4
23.3
28.4
34.1
38.4
44.7
47.5
55.8
66.3
85.5
94.2
98.6
103.8
119.2
125.3
137.3
144.1
159.9
163.1
179.6
205.9
215.0
233.6
238.9
250.2
269.3
278.3
287.0
303.9
308.2
323.7
331.7
341.8
352.6
359.8
363.3
378.0
404.3
421.4
446.4
464.4
485.6
500.6
505.6
530.5
539.0
546.4
552.7
556.4
572.7
588.3
602.8
613.0
616.0
630.2
644.4
649.6
667.1
674.1
701.1
714.8
728.2
760.6
764.4
798.1
818.6
819.8
828.3
858.8
878.6
883.6
884.4
895.0
904.8
934.5
966.4
982.5
1001.1
1008.6
1010.1
1012.6
1015.4
1018.9
1035.0
1041.1
1069.1
1075.3
1080.9
1083.1
1113.1
1127.4
1173.5
1177.1
1187.9
1188.4
1195.7
1205.5
1219.1
1233.9
1248.4
1262.8
1266.3
1268.5
1274.8
1277.0
1280.9
1285.6
1294.4
1298.1
1302.6
1332.0
1335.8
1337.1
1345.0
1351.2
1352.8
1365.0
1367.6
1381.3
1393.1
1398.6
1428.2
1450.2
1472.3
1505.4
1512.4
1523.4
1530.7
1533.1
1554.4
1589.0
1596.6
1600.4
1644.3
1659.5
1664.5
1695.4
1695.8
1705.9
1707.1
1713.3
1770.8
1972.4
2454.4
2650.3
2652.7
2666.1
2672.0
2733.3
2742.1
2743.7
2744.0
2747.2
2747.8
2750.9
2751.1
2753.5
2758.8
2761.1
2763.5
2765.8
2767.6
2773.6
2778.7
2811.4
       
[FR-COORD]
C -1.93602 -2.7864 -1.15462
C 0.706946 -2.7864 -1.15462
C 2.04336 -0.516273 -1.15462
N 0.801811 1.75045 -1.14706
C -1.79203 1.81357 -1.09037
C -3.21027 -0.463928 -1.11664
N -3.00977 4.10808 -1.14196
C -5.88291 -0.328056 -1.11513
N -8.06743 -0.211649 -1.10625
C -3.3074 -5.18446 -1.17333
C -2.79642 -6.96496 -3.0708
C -4.09787 -9.23188 -3.13865
C -5.92354 -9.71962 -1.26801
C -6.43357 -7.98258 0.651766
C -5.11473 -5.70886 0.677656
O -7.05643 -11.9967 -1.55449
C 4.81937 -0.520431 -1.10266
C 6.14898 -1.64841 -3.08687
C 8.77362 -1.69603 -3.03207
C 10.0819 -0.628523 -0.995886
C 8.74301 0.498699 0.980201
C 6.11553 0.565973 0.924265
C 12.8961 -0.695608 -0.963193
C -9.07787 -12.5912 0.114895
C 2.49425 4.30215 -1.62082
C -2.72593 5.92637 0.504935
C -1.26933 6.01689 2.84536
C 1.38366 5.91125 2.80946
C 2.84026 5.69847 0.554635
C -2.59289 6.31943 5.12191
C -1.29219 6.50179 7.38203
C 1.36022 6.44208 7.37333
C 2.67472 6.17279 5.13514
O 5.16575 6.90695 0.602067
O -4.1094 8.00393 0.102045
O 3.1685 4.30083 -3.76698
H 1.74271 -4.57049 -1.12042
H -5.11076 7.92211 -1.51651
H -1.38536 -6.54544 -4.5172
H -3.75073 -10.629 -4.60545
H -7.83537 -8.36638 2.09797
H -5.50118 -4.32823 2.16336
H 5.13363 -2.45872 -4.68558
H 9.81713 -2.54962 -4.58391
H 9.74721 1.36211 2.55453
H 5.07656 1.5029 2.44606
H 13.6108 -2.64392 -1.08262
H 13.7056 0.145131 0.753812
H 13.6907 0.34941 -2.57872
H -9.72359 -14.4237 -0.620019
H -10.5925 -11.1874 -0.0183303
H -8.39114 -12.7914 2.05527
H -4.65118 6.4194 5.09451
H -2.30414 6.71193 9.15364
H 2.37728 6.60743 9.15572
H 4.7366 6.15219 5.11133
H 4.93785 8.62868 -0.0961871

[FR-NORM-COORD]
Vibration 1
0.00396842 0.00925966 -0.0168186
0.00377945 0.00718096 -0.0183303
0.00566918 0.00604712 -0.0173855
0.00736993 0.00699199 -0.0153068
0.00736993 0.00907068 -0.0211649
0.00566918 0.0103935 -0.0222988
0.0103935 0.0109604 -0.0238105
0.00585815 0.0122832 -0.0266451
0.00585815 0.013984 -0.0304246
0.00170075 0.0103935 -0.00472431
-0.0062361 0.00170075 0.00170075
-0.00661404 0.00132281 0.0179524
0.00151178 0.0100155 0.0281569
0.00831479 0.0198421 0.0211649
0.00831479 0.0200311 0.00453534
0.00170075 0.00774788 0.0451645
0.00566918 0.00321253 -0.0175745
0.0041574 0.0096376 -0.0222988
0.0041574 0.0062361 -0.0226767
0.00548021 -0.00377945 -0.0185193
0.00718096 -0.0096376 -0.013984
0.00718096 -0.00604712 -0.0134171
0.00548021 -0.00812582 -0.0185193
0.013795 0.0122832 0.0614161
0.0109604 0.00850377 0.0102045
0.000944863 0.00302356 -0.0134171
-0.0147399 -0.0130391 -0.00302356
-0.0147399 -0.0181414 0.013984
0.000188973 -0.00718096 0.0224877
-0.0296687 -0.0258892 -0.00982658
-0.0445975 -0.0438416 0
-0.0445975 -0.0487549 0.0173855
-0.0298577 -0.0357158 0.0245664
0.00359048 -0.0147399 0.0468652
0.00812582 0.0075589 -0.0132281
0.0238105 0.0232436 0.0143619
0.00245664 0.0062361 -0.0185193
0.0192752 0.0171965 -0.020598
-0.0120942 -0.00529123 -0.00604712
-0.0126612 -0.00585815 0.0234326
0.013795 0.0270231 0.0283459
0.013795 0.02759 -0.00113384
0.00283459 0.0171965 -0.0253223
0.00302356 0.0111494 -0.0262672
0.00831479 -0.0168186 -0.0107714
0.00850377 -0.0103935 -0.00982658
0.0020787 -0.00925966 -0.0181414
0.00680301 -0.00925966 -0.0185193
0.00736993 -0.0096376 -0.0185193
0.0156847 0.00510226 0.0778567
0.00850377 0.00661404 0.0604712
0.0257003 0.027779 0.0589595
-0.0292908 -0.0217318 -0.0232436
-0.0559359 -0.0544241 -0.00529123
-0.0563138 -0.0629279 0.0255113
-0.0298577 -0.0393063 0.0381725
0.0141729 -0.00982658 0.0555579
Vibration 2
0.00510226 -0.00491329 0.0117163
0.00510226 -0.00491329 0.00661404
0.00566918 -0.00529123 0.00585815
0.00566918 -0.00491329 0.0120942
0.00548021 -0.00453534 0.013606
0.00548021 -0.00472431 0.0168186
0.00548021 -0.00566918 0.00434637
0.00548021 -0.00453534 0.0232436
0.00548021 -0.00453534 0.0291018
0.00529123 -0.00491329 0.0062361
0.00680301 0.000566918 0.00113384
0.0062361 0.00132281 -0.00736993
0.00396842 -0.00377945 -0.0107714
0.00321253 -0.0100155 -0.00529123
0.00396842 -0.0105825 0.00321253
0.00264562 -0.0020787 -0.0200311
0.00585815 -0.00812582 -0.00774788
-0.00736993 -0.0177634 -0.0113384
-0.00718096 -0.0224877 -0.0264562
0.00661404 -0.0175745 -0.0376055
0.0198421 -0.0075589 -0.034393
0.0196532 -0.00264562 -0.0194642
0.00661404 -0.0228657 -0.0536682
-0.00170075 -0.00529123 -0.0264562
0.00396842 -0.00774788 0.0251334
-0.00283459 0.00377945 -0.00472431
-0.013606 0.020598 0.000566918
-0.0134171 0.0115273 0.0166296
0.00132281 -0.0113384 0.0294797
-0.0257003 0.0498888 -0.00982658
-0.0391173 0.0701088 -0.00434637
-0.0389284 0.0597153 0.0117163
-0.0268341 0.0306136 0.0228657
0.013984 -0.0359048 0.0436527
-0.00491329 -0.000944863 -0.0226767
0.0149288 0.000188973 0.0283459
0.00491329 -0.00510226 0.00226767
0.00075589 -0.0126612 -0.0255113
0.00812582 0.00472431 0.00377945
0.00718096 0.00585815 -0.0113384
0.00188973 -0.0143619 -0.00774788
0.00340151 -0.0153068 0.0075589
-0.0177634 -0.0217318 -0.00264562
-0.0175745 -0.0296687 -0.0294797
0.0304246 -0.00340151 -0.0432747
0.0306136 0.00566918 -0.0170075
0.00264562 -0.0241885 -0.055369
0.0177634 -0.0219208 -0.0593374
-0.00075589 -0.0262672 -0.0595264
-0.00359048 -0.00113384 -0.0351489
0.00113384 -0.0020787 -0.0234326
-0.00566918 -0.0143619 -0.0258892
-0.0253223 0.0565028 -0.0234326
-0.048566 0.0935414 -0.0126612
-0.0489439 0.0750221 0.0160627
-0.0268341 0.0211649 0.0359048
0.0381725 -0.0351489 0.0376055
Vibration 3
-0.0190862 0.0156847 -0.0151178
-0.0190862 0.0113384 -0.013795
-0.0145509 0.00850377 -0.00680301
-0.0103935 0.0107714 -0.00170075
-0.0103935 0.0153068 -0.000944863
-0.0149288 0.0177634 -0.00793685
-0.00585815 0.0175745 0.00661404
-0.0145509 0.0224877 -0.0075589
-0.0143619 0.0260782 -0.00699199
-0.0162516 0.0141729 -0.0200311
-0.00566918 0.0154958 -0.0188973
0.0151178 0.00359048 -0.0115273
0.0255113 -0.0103935 -0.00491329
0.00774788 -0.0075589 -0.0124722
-0.0134171 0.00510226 -0.0202201
0.0548021 -0.0268341 0.00850377
-0.0147399 -0.00151178 -0.00340151
-0.0171965 -0.0132281 0.00151178
-0.0177634 -0.0315584 0.00850377
-0.0158737 -0.0383614 0.0107714
-0.0130391 -0.0243775 0.00453534
-0.0126612 -0.00604712 -0.00245664
-0.0164406 -0.062172 0.0202201
0.082581 -0.0559359 0.0315584
-0.00548021 0.00680301 0.000188973
0.00132281 0.0156847 0.00774788
0.00510226 0.0128501 0.00529123
0.00491329 0.00718096 0.00264562
0.00245664 0.00264562 0.00188973
0.00831479 0.0181414 0.00680301
0.0111494 0.0177634 0.00510226
0.0109604 0.0119053 0.00226767
0.00793685 0.00661404 0.00113384
0.00812582 -0.00812582 0.000944863
0.00396842 0.0183303 0.0117163
-0.00869274 0.00907068 -0.000944863
-0.0222988 0.00925966 -0.0175745
0.00075589 0.0211649 0.013606
-0.0122832 0.0253223 -0.0224877
0.0253223 0.00359048 -0.00907068
0.0109604 -0.0151178 -0.0115273
-0.0260782 0.00642507 -0.0247554
-0.0187083 -0.00850377 0
-0.0196532 -0.041385 0.0126612
-0.0113384 -0.0285349 0.00566918
-0.0100155 0.0041574 -0.00680301
-0.0328812 -0.0684081 0.0249444
-0.0149288 -0.0672742 0.0221098
-0.0020787 -0.0708647 0.0217318
0.113573 -0.0746442 0.0510226
0.0531013 -0.0876833 0.034393
0.103557 -0.027779 0.0270231
0.00850377 0.0224877 0.00888171
0.013606 0.0221098 0.00604712
0.0134171 0.0117163 0.000944863
0.00774788 0.00170075 -0.000944863
0.0156847 -0.00661404 0.00264562
Vibration 4
-0.00850377 -0.00491329 -0.00812582
-0.00793685 -0.00888171 -0.0105825
-0.00642507 -0.0105825 -0.00491329
-0.00340151 -0.00888171 -0.00170075
-0.00321253 -0.00472431 -0.000566918
-0.00548021 -0.00359048 -0.00264562
0.00170075 -0.00283459 0.00170075
-0.00548021 -0.000944863 0.00075589
-0.00529123 0.000944863 0.00340151
-0.0107714 -0.00377945 -0.00869274
-0.0181414 -0.00132281 -0.0128501
-0.0168186 -0.00226767 -0.00925966
-0.00736993 -0.00585815 -0.000944863
-0.00188973 -0.00718096 0.00151178
-0.00396842 -0.00585815 -0.00264562
-0.00434637 -0.00812582 0.00377945
-0.0062361 -0.00529123 0
0.0041574 0.0600933 -0.0294797
0.00472431 0.0778567 -0.0258892
-0.00699199 0.0292908 0.00680301
-0.0183303 -0.0385504 0.0379835
-0.0187083 -0.0546131 0.034582
-0.00642507 0.0506447 0.00925966
0.0120942 -0.0171965 0.0202201
0.00566918 -0.0158737 0.00264562
0.0102045 0.000944863 -0.00377945
0.0105825 0.00529123 -0.00434637
0.0103935 -0.00604712 0.000188973
0.0143619 -0.0213539 0.00529123
0.00888171 0.0249444 -0.0075589
0.00566918 0.0326923 -0.00680301
0.00566918 0.0200311 -0.00226767
0.0075589 0.00075589 0.00170075
0.02759 -0.0466762 0.0107714
0.0151178 0.00340151 -0.00888171
0.00529123 -0.0141729 0.00245664
-0.00982658 -0.0100155 -0.0162516
0.0130391 0.000944863 -0.00736993
-0.0247554 0.00113384 -0.0185193
-0.0221098 -0.000566918 -0.0120942
0.00396842 -0.00888171 0.00661404
0.000377945 -0.00680301 -0.000566918
0.0122832 0.0978878 -0.0536682
0.013795 0.129446 -0.048377
-0.0268341 -0.0769118 0.0644397
-0.0289128 -0.103557 0.0568808
0.00680301 0.0559359 0.00113384
-0.0145509 0.048566 0.0141729
-0.0115273 0.0638727 0.0154958
0.0162516 -0.0215429 0.0270231
0.00359048 -0.0253223 0.0302356
0.0279679 -0.0117163 0.0151178
0.00925966 0.0340151 -0.0113384
0.00396842 0.048377 -0.0096376
0.00359048 0.0260782 -0.00170075
0.0075589 -0.0100155 0.00510226
0.047999 -0.0436527 0.0113384
Vibration 5
0.00850377 -0.00151178 -0.00680301
0.00793685 -0.00075589 -0.0192752
0.00642507 0.00075589 -0.0126612
0.00453534 -0.000188973 -0.00850377
0.00453534 -0.0020787 -0.00283459
0.00661404 -0.00321253 0.00850377
0.00226767 -0.00340151 -0.00869274
0.00642507 -0.00869274 0.0396842
0.0062361 -0.0149288 0.068975
0.00529123 -0.000188973 -0.00793685
-0.0478101 0.0287238 -0.0487549
-0.0585815 0.034771 -0.0519675
-0.0122832 0.0115273 -0.0128501
0.0428968 -0.0175745 0.0281569
0.0506447 -0.0219208 0.0296687
-0.0291018 0.020976 -0.0215429
0.0062361 0.00132281 -0.00491329
0.0134171 -0.00736993 0.00491329
0.0132281 -0.0117163 0.0170075
0.00585815 -0.00718096 0.0192752
-0.00113384 0.00302356 0.00869274
-0.00075589 0.00718096 -0.00340151
0.00548021 -0.013795 0.0338261
0.0236216 -0.00642507 0.0325033
0.00170075 0.00283459 -0.00548021
-0.00340151 -0.00151178 -0.0102045
-0.00680301 0 -0.00812582
-0.00680301 0.00151178 -0.0062361
-0.00491329 0.00453534 -0.00566918
-0.00925966 -0.00302356 -0.00944863
-0.0113384 -0.00434637 -0.00812582
-0.0113384 -0.00245664 -0.00585815
-0.00907068 0.000566918 -0.00510226
-0.00888171 0.0120942 -0.0041574
-0.00396842 -0.00264562 -0.0145509
0.0062361 0.00302356 -0.0041574
0.00850377 -0.000566918 -0.0313695
-0.000944863 -0.00491329 -0.0162516
-0.0820141 0.0462983 -0.0767229
-0.101478 0.0568808 -0.0831479
0.0784236 -0.0355268 0.0576366
0.0916517 -0.0421409 0.0589595
0.0192752 -0.0111494 0.00302356
0.0187083 -0.0188973 0.0247554
-0.00699199 0.00736993 0.0100155
-0.00585815 0.013984 -0.0111494
0.00151178 -0.0154958 0.0370386
-0.00113384 -0.0162516 0.0381725
0.0162516 -0.0154958 0.0379835
0.00340151 0.00359048 0.0251334
0.0177634 -0.0062361 0.0993996
0.0833369 -0.034204 0.00831479
-0.00925966 -0.00453534 -0.0113384
-0.0130391 -0.00661404 -0.00888171
-0.0128501 -0.00340151 -0.00491329
-0.00907068 0.00226767 -0.00321253
-0.0141729 0.0113384 -0.00453534
Vibration 6
-0.00245664 0.00718096 0.0192752
-0.0020787 0.00831479 0.00566918
-0.00264562 0.00812582 -0.00472431
-0.00170075 0.00793685 -0.0102045
-0.00132281 0.0075589 -0.00075589
-0.00170075 0.0075589 0.0247554
0.00075589 0.00925966 -0.0166296
-0.00151178 0.0103935 0.0597153
-0.00132281 0.013984 0.0937304
0.00283459 0.00434637 0.0190862
0.0272121 0.000377945 0.0287238
0.0351489 -0.00340151 0.020598
0.0158737 -0.00340151 0.00188973
-0.00736993 -0.000944863 -0.00642507
-0.0128501 0.00226767 0.00302356
0.0236216 -0.0062361 -0.0062361
-0.00226767 0.00642507 -0.00718096
-0.00321253 0.0309915 -0.0213539
-0.00340151 0.0200311 -0.0162516
-0.00396842 -0.0158737 0.00283459
-0.00359048 -0.0353379 0.0143619
-0.00321253 -0.0232436 0.00888171
-0.00453534 -0.0353379 0.0122832
-0.00850377 0.00245664 -0.0423299
0.00283459 0.00831479 -0.0113384
0.00170075 0.0128501 -0.020976
-0.00529123 0.00359048 -0.0156847
-0.00548021 -0.00170075 -0.0109604
-0.00302356 0.00812582 -0.0113384
-0.0100155 -0.0103935 -0.0173855
-0.0141729 -0.0306136 -0.0130391
-0.0145509 -0.0359048 -0.0075589
-0.00982658 -0.020976 -0.00718096
-0.00831479 0.0179524 -0.0075589
0.0164406 0.0202201 -0.0304246
0.00604712 0.00396842 -0.0102045
-0.000944863 0.00888171 0.00434637
0.0234326 0.0234326 -0.0349599
0.0404401 0.00113384 0.041385
0.0546131 -0.00604712 0.027779
-0.020409 -0.0020787 -0.0192752
-0.0300466 0.00283459 -0.00188973
-0.00321253 0.0574477 -0.034771
-0.00321253 0.0381725 -0.0260782
-0.00321253 -0.0606602 0.027779
-0.00359048 -0.0377945 0.0171965
-0.0185193 -0.0400622 0.00548021
-0.00453534 -0.0498888 0.0192752
0.00907068 -0.0334482 0.020409
-0.00359048 0.00529123 -0.0536682
-0.000377945 0.00869274 -0.0684081
-0.0430858 -0.000377945 -0.0304246
-0.00982658 -0.00585815 -0.020976
-0.0177634 -0.0423299 -0.013606
-0.0179524 -0.0521564 -0.0041574
-0.00982658 -0.0238105 -0.00321253
-0.0158737 0.0187083 -0.00321253
Vibration 7
-0.013984 0.00302356 0.013795
-0.013795 -0.0041574 0.0202201
-0.00718096 -0.00812582 0.0162516
-0.0020787 -0.00510226 0.00434637
-0.00188973 0.00226767 0.00132281
-0.00831479 0.0062361 0.0100155
0.00831479 0.00793685 -0.0115273
-0.00793685 0.013984 0.0164406
-0.0075589 0.020976 0.0239995
-0.0168186 0.00453534 0.00548021
-0.0109604 0.0107714 0.000944863
-0.00453534 0.00736993 -0.00604712
-0.00377945 -0.00302356 -0.00793685
-0.013606 -0.00699199 -0.00699199
-0.0202201 -0.00283459 -0.000188973
0.00793685 -0.00831479 -0.0120942
-0.00736993 -0.00944863 0.0177634
-0.00812582 -0.0366607 0.0325033
-0.0075589 -0.0170075 0.0215429
-0.00548021 0.0306136 -0.00472431
-0.00472431 0.0476211 -0.0141729
-0.00548021 0.0260782 -0.00245664
-0.00453534 0.0663294 -0.0243775
0.0226767 -0.0298577 -0.0020787
0.00642507 -0.00831479 -0.00132281
0.0170075 0.0115273 -0.0166296
0.00888171 0.00151178 -0.0107714
0.00850377 -0.0103935 -0.00245664
0.0124722 -0.0119053 0.000188973
0.00245664 -0.00321253 -0.0143619
-0.00396842 -0.020787 -0.00888171
-0.00434637 -0.0325033 -0.000377945
0.00226767 -0.0266451 0.00245664
0.0202201 -0.0279679 0.00680301
0.0396842 0.0238105 -0.0291018
0.0020787 -0.0119053 -0.00226767
-0.0190862 -0.00699199 0.0270231
0.0464873 0.0289128 -0.0334482
-0.0105825 0.0179524 0.00340151
0.000944863 0.0119053 -0.00888171
-0.0158737 -0.0132281 -0.0107714
-0.027779 -0.00642507 0.000944863
-0.00907068 -0.0706758 0.0506447
-0.00869274 -0.0360938 0.0311805
-0.0041574 0.0793685 -0.0317474
-0.00472431 0.0394953 -0.0096376
0.020787 0.0752111 -0.0151178
-0.00302356 0.0907068 -0.0370386
-0.0306136 0.0650066 -0.0383614
0.0379835 -0.0360938 0.000566918
0.00793685 -0.0451645 0.00566918
0.0340151 -0.0234326 -0.00548021
0.00302356 0.00642507 -0.020598
-0.00907068 -0.0253223 -0.0113384
-0.0096376 -0.0464873 0.00396842
0.0020787 -0.034771 0.00925966
0.0325033 -0.0236216 0.0134171
Vibration 8
-0.00359048 -0.000377945 0.020787
-0.00377945 -0.00718096 0.0376055
0.000944863 -0.0100155 0.0351489
0.00793685 -0.00661404 0.0292908
0.00793685 -0.00075589 0.0130391
0.0020787 0.00283459 0.00736993
0.0105825 0.000944863 -0.0020787
0.00245664 0.00831479 -0.0177634
0.00264562 0.0128501 -0.0404401
-0.0096376 0.00302356 0.00925966
-0.0156847 0.0149288 -0.00359048
-0.0158737 0.0154958 -0.0134171
-0.00831479 0.00302356 -0.00907068
-0.00585815 -0.00661404 0.000188973
-0.00718096 -0.00548021 0.00888171
-0.00396842 0.0020787 -0.0171965
0.00132281 -0.0154958 0.0241885
-0.0134171 0.00699199 0.00151178
-0.0130391 0.0113384 -0.020976
0.00151178 -0.0075589 -0.020409
0.0156847 -0.0338261 0.00434637
0.0149288 -0.0366607 0.0264562
0.0020787 0.00170075 -0.048566
0.0279679 -0.0281569 0.0102045
0.0211649 -0.0117163 0.0158737
0.00302356 0.0041574 -0.00510226
-0.00510226 0.00396842 0.00075589
-0.00529123 0.013606 0.000377945
-0.00831479 0.0239995 -0.00548021
-0.00680301 -0.0111494 0.00075589
-0.00585815 -0.0149288 0.00132281
-0.00604712 -0.00245664 0.000566918
-0.00491329 0.0119053 -0.00151178
-0.041196 0.0884392 -0.0238105
0.0105825 0.00680301 -0.0162516
0.0468652 -0.048566 0.0234326
-0.00812582 -0.00944863 0.0462983
0.0198421 0.00642507 -0.0219208
-0.0194642 0.0236216 -0.00472431
-0.020598 0.0243775 -0.0230547
-0.00321253 -0.0141729 0.000566918
-0.0062361 -0.0120942 0.0149288
-0.0255113 0.0228657 0.000944863
-0.0241885 0.0308025 -0.0393063
0.02759 -0.0506447 0.00585815
0.0247554 -0.0548021 0.0434637
0.00699199 0.00434637 -0.0614161
0.0162516 -0.000566918 -0.0542351
-0.0171965 0.00888171 -0.0534792
0.0381725 -0.0326923 0.0122832
0.0100155 -0.0447865 0.0376055
0.0580146 -0.0281569 -0.000377945
-0.00699199 -0.0196532 0.00188973
-0.00642507 -0.0268341 0.00245664
-0.00604712 -0.0041574 0.00075589
-0.00472431 0.0228657 -0.00340151
-0.0910848 0.0729434 -0.0455424
Vibration 9
-0.00264562 -0.00453534 -0.0332592
-0.00170075 -0.0107714 -0.0489439
0.00548021 -0.0153068 -0.02759
0.0122832 -0.0100155 -0.00793685
0.0134171 -0.0041574 -0.00453534
0.0062361 -0.000377945 -0.00604712
0.0119053 -0.00510226 0.000377945
0.00699199 0.0175745 0.0291018
0.00831479 0.0383614 0.0644397
-0.0102045 0 -0.0315584
0.00434637 -0.0217318 -0.00736993
0.00434637 -0.0222988 0.00661404
-0.0124722 -0.00151178 -0.00434637
-0.034204 0.0238105 -0.0328812
-0.0319364 0.0221098 -0.0457314
-0.00529123 -0.0075589 0.0171965
0.00529123 -0.0188973 -0.0151178
0.0185193 -0.0247554 -0.00283459
0.0190862 -0.0109604 0.00736993
0.00642507 0.0096376 0.00453534
-0.00680301 0.00850377 -0.00377945
-0.00661404 -0.00680301 -0.0132281
0.00699199 0.0359048 0.0105825
0.00302356 -0.00245664 0.0292908
0.0158737 -0.0141729 0.00925966
-0.00585815 -0.0115273 0.00944863
-0.0062361 -0.00680301 0.00907068
-0.0062361 0.000566918 0.00453534
-0.00736993 0.00075589 0.00302356
-0.00377945 -0.00283459 0.00982658
-0.000566918 0.0111494 0.00699199
-0.000377945 0.020598 0.00245664
-0.00340151 0.0143619 0.00132281
-0.0228657 0.0326923 -0.0020787
-0.0239995 -0.0215429 0.0179524
0.0470542 -0.020976 0.0181414
-0.00642507 -0.013795 -0.0702978
-0.0230547 -0.0236216 0.0175745
0.0175745 -0.0391173 0.000377945
0.0183303 -0.0394953 0.0262672
-0.0514005 0.0434637 -0.0442196
-0.0457314 0.0377945 -0.0634948
0.0291018 -0.0379835 -0.00264562
0.0289128 -0.0141729 0.0158737
-0.0171965 0.020787 -0.00377945
-0.0164406 -0.00793685 -0.0190862
0.0262672 0.0427078 0.0171965
-0.00434637 0.0487549 0.0096376
0 0.0393063 0.00907068
0.0230547 -0.0221098 0.0604712
-0.0122832 -0.0213539 0.00642507
0.00604712 0.0374166 0.0325033
-0.0041574 -0.0102045 0.0126612
0.00170075 0.0153068 0.00774788
0.00226767 0.0326923 -0.000188973
-0.00321253 0.0213539 -0.0020787
-0.0447865 0.0224877 -0.0196532
Vibration 10
-0.0145509 0.0041574 -0.0255113
-0.0147399 -0.0020787 -0.0309915
-0.0100155 -0.00529123 -0.0120942
-0.00434637 -0.00188973 0.00377945
-0.00453534 0.00377945 0.000188973
-0.00982658 0.0062361 -0.0117163
0.00226767 0.00718096 0.00510226
-0.0096376 0.00925966 -0.00736993
-0.00944863 0.0103935 -0.0041574
-0.00944863 0.000566918 -0.0196532
-0.02759 0.00774788 -0.0311805
-0.00604712 -0.00548021 -0.00793685
0.0315584 -0.0230547 0.0238105
0.0500777 -0.0294797 0.034393
0.0291018 -0.0168186 0.0124722
0.0544241 -0.0387394 0.0523454
-0.0107714 -0.0119053 -0.00453534
-0.00661404 -0.0179524 0.00188973
-0.00661404 -0.0117163 0.00491329
-0.0113384 0.00132281 0.00113384
-0.0158737 -0.000188973 -0.000944863
-0.0156847 -0.0075589 -0.00340151
-0.0109604 0.020409 -0.00170075
-0.0514005 0.0359048 -0.048566
0.00944863 -0.00718096 0.0111494
0.00850377 0.00812582 0.00264562
0.00264562 0.00491329 0.00680301
0.0020787 0.00151178 0.00793685
-0.000188973 0.00245664 0.00529123
0.0020787 0.00812582 0.00585815
0.00245664 0.00774788 0.00604712
0.0020787 0.00321253 0.00699199
0.00245664 -0.000188973 0.00718096
-0.0109604 0.0238105 -0.00075589
0.0255113 0.0177634 -0.00642507
0.0272121 -0.0196532 0.0164406
-0.0187083 -0.00472431 -0.0457314
0.0309915 0.0224877 -0.0100155
-0.0593374 0.0232436 -0.0574477
-0.0188973 -0.00151178 -0.0149288
0.0835259 -0.0468652 0.062172
0.0438416 -0.0211649 0.020409
-0.00302356 -0.0255113 0.00359048
-0.00283459 -0.0151178 0.00925966
-0.0194642 0.00548021 -0.00188973
-0.0194642 -0.00907068 -0.00510226
0.00377945 0.0268341 -0.0153068
-0.0151178 0.0153068 0.00283459
-0.020598 0.0372276 0.0041574
-0.0784236 0.0566918 -0.076156
0.00283459 0.0871164 -0.124533
-0.152123 0.0168186 -0.0147399
0.00245664 0.0113384 0.00529123
0.00226767 0.0107714 0.00566918
0.0020787 0.00245664 0.00718096
0.00245664 -0.00302356 0.00718096
-0.027401 0.0185193 -0.00850377
Vibration 11
0.0062361 -0.0154958 -0.0241885
0.00585815 -0.00585815 -0.0360938
-0.00188973 -0.000188973 -0.00736993
-0.00793685 -0.00453534 0.0272121
-0.00982658 -0.013984 0.0253223
-0.00132281 -0.0181414 0.00302356
-0.00188973 -0.0107714 0.0270231
-0.0020787 -0.0362827 0.00302356
-0.00359048 -0.0606602 0.00151178
0.00736993 -0.0168186 -0.0255113
0.00907068 -0.0330702 -0.00944863
-0.00075589 -0.0287238 0
-0.0134171 -0.00850377 -0.00736993
-0.0153068 0.00736993 -0.0221098
-0.0041574 0.000377945 -0.0306136
-0.0268341 -0.00340151 0.00321253
-0.00188973 0.00869274 -0.0105825
0.000566918 0.00888171 -0.00925966
0.000377945 0.00566918 -0.00434637
-0.0020787 0.00226767 -0.00113384
-0.00396842 0.0111494 -0.0075589
-0.00377945 0.013606 -0.0120942
-0.00264562 -0.0153068 0.0122832
-0.00491329 0.000944863 0.0317474
-0.0160627 0.0134171 0.0190862
0.0306136 0.00888171 -0.000377945
0.00869274 0.00472431 0.0151178
0.00869274 0.0119053 0.0224877
-0.00132281 0.0141729 0.0149288
0.000188973 -0.00491329 0.00982658
-0.00434637 0 0.0132281
-0.00453534 0.0143619 0.0196532
0.00359048 0.0188973 0.0226767
-0.0149288 0.0398732 -0.00869274
0.108281 0.048566 -0.0563138
-0.0487549 0.0175745 0.0096376
0.0128501 -0.00226767 -0.0640617
0.130769 0.0565028 -0.0708647
0.0181414 -0.0500777 -0.00529123
0.0020787 -0.0404401 0.0119053
-0.0258892 0.0255113 -0.027401
-0.00453534 0.0100155 -0.0393063
0.00245664 0.00982658 -0.0109604
0.00226767 0.00340151 -0.00188973
-0.00585815 0.013606 -0.00774788
-0.00529123 0.0168186 -0.0149288
-0.0160627 -0.0221098 0.0396842
-0.00491329 -0.000377945 0.0062361
0.0130391 -0.0408181 0.00377945
-0.00264562 -0.0096376 0.0561249
-0.013795 -0.00831479 0.034204
0.0164406 0.0226767 0.0264562
0.000188973 -0.0149288 0.00529123
-0.00982658 -0.00642507 0.0109604
-0.0096376 0.0213539 0.0219208
0.00340151 0.0287238 0.0264562
-0.0421409 0.0379835 -0.00510226
Vibration 12
-0.00548021 0.00321253 0.00113384
-0.00548021 0.00321253 0.0062361
-0.00396842 0.00245664 0.00510226
-0.00226767 0.00340151 -0.00321253
-0.00264562 0.00170075 -0.013795
-0.00434637 0.00359048 -0.00642507
0.00113384 0.00453534 -0.0224877
-0.00434637 0.00793685 0.00245664
-0.00396842 0.0134171 0.0145509
-0.00510226 0.00302356 0.00188973
-0.00604712 0.00585815 -0.000944863
-0.00283459 0.0041574 -0.00113384
0.00132281 -0.000377945 0.00188973
0.00132281 -0.00264562 0.00396842
-0.00188973 -0.000566918 0.00396842
0.0062361 -0.00302356 0.00264562
-0.00434637 0.000377945 0.0062361
-0.00793685 0.00188973 0.00283459
-0.00812582 0.00113384 -0.00113384
-0.00510226 -0.00188973 -0.00132281
-0.00170075 -0.00510226 0.00264562
-0.00188973 -0.00321253 0.00642507
-0.00510226 -0.00170075 -0.00718096
-0.00302356 -0.000377945 -0.00774788
0 0.00188973 0.00510226
0.00434637 -0.0124722 -0.00377945
0.00170075 -0.0400622 -0.00170075
0.00529123 0.0406291 -0.0062361
0.00793685 0.0105825 0.00245664
-0.00907068 -0.126234 0.00396842
-0.013795 -0.0750221 0.00132281
-0.00925966 0.0795575 -0.00944863
-0.00170075 0.13058 -0.00982658
0.0360938 -0.0423299 0.00132281
0.0230547 0.00226767 0.0115273
0.00831479 0.00151178 0.00793685
-0.00604712 0.00283459 0.0117163
0.0279679 0.0264562 0.00736993
-0.00925966 0.00925966 -0.00302356
-0.00340151 0.00604712 -0.00302356
0.00453534 -0.00642507 0.00585815
-0.00170075 -0.00226767 0.00548021
-0.0107714 0.00396842 0.00359048
-0.0105825 0.00321253 -0.00377945
0.00075589 -0.00831479 0.00283459
0.00075589 -0.00396842 0.00869274
-0.00491329 -0.00113384 -0.0147399
-0.00188973 -0.00661404 -0.00642507
-0.00869274 0.00340151 -0.00585815
-0.00264562 0.00113384 -0.0119053
0 0.00226767 -0.0141729
-0.0126612 -0.00245664 -0.00453534
-0.013984 -0.228468 0.00888171
-0.0188973 -0.14532 0.00661404
-0.0130391 0.151745 -0.013984
-0.00075589 0.228657 -0.013795
0.08277 -0.0472432 -0.0253223
Vibration 13
-0.00151178 0.000377945 0.00302356
-0.00132281 -0.000566918 0.00170075
-0.00113384 -0.00113384 -0.00132281
-0.000377945 -0.000566918 -0.00113384
-0.000188973 0.000377945 -0.000188973
-0.00075589 0.000566918 0.00132281
-0.000188973 0.000377945 0
-0.00075589 0.00170075 -0.000377945
-0.00075589 0.00283459 -0.00264562
-0.00188973 0.000377945 0.00340151
-0.00359048 0.00321253 0.000377945
-0.00226767 0.00264562 -0.000944863
0.000566918 -0.00075589 0.00075589
0.00151178 -0.00340151 0.00340151
0.000377945 -0.00264562 0.00472431
0.00340151 -0.0020787 -0.000188973
-0.000944863 0.00188973 -0.00359048
0.000377945 0.00907068 -0.00680301
0.000377945 0.0132281 -0.00718096
-0.000944863 0.0120942 -0.00566918
-0.00226767 0.00793685 -0.0041574
-0.00245664 0.00170075 -0.00245664
-0.00151178 -0.0115273 0.00907068
-0.00340151 -0.00113384 -0.00831479
0.00453534 -0.00359048 0.000944863
-0.00132281 -0.00075589 0.00151178
0 -0.00113384 0.000566918
0 -0.000566918 -0.000566918
0.000377945 -0.000944863 -0.000188973
0.00075589 -0.0020787 0.00132281
0.00151178 -0.00188973 0.00075589
0.00170075 -0.00075589 -0.000377945
0.00075589 -0.000188973 -0.00075589
0.000377945 -0.00075589 0.00151178
-0.00453534 -0.00226767 0.00453534
0.013795 -0.00907068 0.00377945
-0.00188973 -0.000944863 0.00245664
-0.00585815 -0.00226767 0.00529123
-0.00566918 0.00585815 -0.000944863
-0.00340151 0.00472431 -0.00340151
0.00340151 -0.0062361 0.00434637
0.00132281 -0.00453534 0.00661404
0.00132281 0.0109604 -0.00831479
0.00170075 0.0160627 -0.00774788
-0.00377945 0.0075589 -0.00302356
-0.00359048 -0.00359048 -0.000188973
-0.0442196 -0.0614161 0.539895
0.00907068 0.438038 -0.215996
0.0291018 -0.466573 -0.267396
0.00302356 -0.00377945 -0.00736993
-0.00453534 -0.00321253 -0.0188973
-0.0128501 0.0041574 -0.00453534
0.00075589 -0.00264562 0.0020787
0.00226767 -0.00264562 0.00113384
0.00226767 -0.000566918 -0.00075589
0.00075589 0.00075589 -0.00170075
0.00170075 -0.00226767 -0.00226767
Vibration 14
-0.00850377 0.00585815 0.0117163
-0.00869274 0.00831479 -0.0103935
-0.0147399 0.0102045 -0.0281569
-0.0168186 0.00982658 -0.0183303
-0.0170075 0.00944863 -0.00132281
-0.0119053 0.00491329 0.00604712
-0.0162516 0.0100155 0.00736993
-0.013606 -0.0239995 -0.00283459
-0.0162516 -0.0706758 -0.0183303
-0.000566918 0.00113384 0.0253223
0.0132281 0.000377945 0.0291018
0.0132281 0.00170075 0.0177634
-0.00226767 0.0020787 0.00302356
-0.00434637 -0.00566918 0.00944863
-0.00396842 -0.00529123 0.0200311
-0.0183303 0.0143619 -0.02759
-0.0151178 0.0228657 -0.0374166
-0.00566918 0.020409 -0.0285349
-0.00566918 0.0154958 -0.0096376
-0.0181414 0.0156847 -0.00188973
-0.027779 0.0462983 -0.0257003
-0.0262672 0.0451645 -0.041385
-0.0198421 -0.0253223 0.0425188
0.00982658 -0.0175745 -0.00548021
0.0298577 -0.0217318 0.00736993
-0.00302356 0.0102045 0.00491329
0.00170075 0.00585815 0.00264562
0.000566918 0.00472431 -0.00283459
0.00245664 -0.00264562 -0.000944863
0.00736993 0.00188973 0.00661404
0.0124722 -0.00453534 0.00434637
0.0124722 -0.00453534 -0.00132281
0.00661404 0.00075589 -0.00510226
0.00850377 -0.0115273 0.0128501
0.0075589 0.0179524 0.00793685
0.117352 -0.0646286 0.0336371
-0.00491329 0.0103935 -0.0120942
0.00340151 0.0241885 0.0103935
0.0230547 0.000944863 0.0385504
0.0219208 0.00321253 0.0183303
-0.00925966 -0.00944863 0.00340151
-0.00907068 -0.00925966 0.0224877
0.00321253 0.0177634 -0.0326923
0.00377945 0.00661404 0.00170075
-0.0362827 0.0627389 -0.0292908
-0.034204 0.0563138 -0.0531013
-0.0457314 -0.0323143 0.00396842
-0.0362827 -0.0823921 0.0782347
0.0215429 0.00529123 0.08277
-0.00170075 -0.00396842 -0.0292908
0.00680301 -0.0160627 0.0462983
0.0428968 -0.0532903 -0.020787
0.00736993 0.00302356 0.0117163
0.0162516 -0.00907068 0.00718096
0.0166296 -0.00925966 -0.00340151
0.00661404 0.000944863 -0.0096376
0.0238105 -0.0185193 -0.00850377
Vibration 15
-0.00642507 -0.0075589 0.0224877
-0.00434637 -0.0109604 -0.00510226
0.00340151 -0.0154958 -0.0300466
0.00831479 -0.0119053 -0.0181414
0.0102045 -0.00793685 -0.00075589
0.00170075 -0.0041574 0.0117163
0.0170075 -0.00434637 -0.00170075
0.00377945 0.0336371 -0.00699199
0.00699199 0.0931635 -0.0359048
-0.00548021 -0.00925966 0.0374166
-0.00151178 -0.00321253 0.0313695
-0.00132281 -0.00170075 0.0162516
-0.00604712 -0.0120942 0.00944863
0.00113384 -0.027401 0.0249444
-0.0020787 -0.0236216 0.0362827
-0.0183303 -0.00113384 -0.0281569
0.00377945 -0.0113384 -0.0394953
0.0217318 -0.00434637 -0.0304246
0.0228657 0.00434637 -0.00982658
0.00453534 0.00604712 0.000944863
-0.013984 0.0096376 -0.013606
-0.0128501 -0.000944863 -0.0334482
0.0041574 0.00359048 0.0370386
-0.000188973 -0.0381725 -0.020409
-0.00812582 0.000377945 -0.000944863
0.0096376 -0.0102045 0.00510226