[Molden Format]
[FREQ]
10.2
12.0
25.0
27.7
29.6
35.9
36.4
42.5
47.7
54.3
58.2
76.8
86.8
98.4
114.6
118.5
131.9
141.4
154.8
161.1
175.4
181.1
211.0
222.5
229.3
250.7
261.6
278.0
293.7
311.1
318.3
330.6
352.2
356.7
362.3
362.9
380.6
425.2
445.8
449.8
483.8
491.9
504.2
516.6
522.3
525.0
543.6
558.7
578.7
589.1
597.9
614.0
616.5
629.4
641.4
649.1
662.9
681.6
698.6
716.3
720.3
729.8
763.7
771.0
793.2
814.1
820.5
828.6
845.5
859.1
880.5
882.5
897.1
901.2
938.9
968.4
972.7
1003.4
1008.1
1009.5
1010.2
1017.7
1018.2
1024.5
1032.7
1045.1
1068.8
1070.6
1080.6
1088.4
1125.6
1138.1
1164.4
1178.4
1183.5
1184.1
1184.2
1196.9
1207.3
1232.0
1248.6
1258.7
1265.7
1269.5
1273.5
1283.4
1286.0
1295.8
1303.9
1315.5
1319.7
1328.2
1331.7
1333.0
1340.4
1348.9
1353.6
1364.8
1377.7
1382.4
1392.3
1425.8
1443.5
1506.0
1521.4
1524.2
1529.4
1538.5
1560.0
1576.1
1597.4
1603.9
1631.0
1653.6
1694.1
1696.8
1698.8
1699.1
1707.6
1707.8
1711.5
1798.5
1881.6
2451.4
2651.9
2653.4
2666.5
2672.5
2727.3
2738.3
2743.9
2744.6
2744.7
2745.1
2748.8
2749.5
2753.0
2756.4
2760.1
2764.2
2766.9
2767.6
2768.7
2779.7
2789.1
       
[FR-COORD]
C -2.15013 -3.30551 -1.30259
C 0.486038 -3.30551 -1.30259
C 1.79543 -0.999287 -1.30259
N 0.558414 1.23399 -1.31978
C -1.98176 1.25005 -1.33452
C -3.45026 -0.982091 -1.31241
N -3.09726 3.71879 -1.37307
C -6.11761 -0.879856 -1.32167
N -8.30383 -0.771386 -1.32508
C -3.50053 -5.71869 -1.32356
C -2.97197 -7.46952 -3.24409
C -4.1984 -9.77763 -3.30003
C -5.967 -10.3338 -1.39443
C -6.51181 -8.61715 0.532525
C -5.26572 -6.30016 0.547643
O -7.00937 -12.6572 -1.66466
C 4.56596 -0.863416 -1.2869
C 5.94961 -2.45173 0.306703
C 8.56991 -2.27977 0.368308
C 9.82469 -0.523454 -1.15821
C 8.43536 1.05522 -2.75503
C 5.81261 0.889305 -2.82061
C 12.63 -0.316151 -1.03954
C -8.8683 -13.3959 0.129257
C -1.88954 5.86665 -1.18486
C 0.833936 6.26085 -1.00118
C 2.02012 6.32 1.56526
C 0.867006 7.30341 3.71822
C -1.65464 8.49016 3.64131
C 4.44747 5.29652 1.75952
C 5.67012 5.19656 4.08578
C 4.49566 6.16939 6.23515
C 2.10175 7.24445 6.04996
O -2.23951 10.6204 4.1608
O 2.09476 6.73782 -2.85594
O -3.43061 6.76201 2.94495
H 1.52501 -5.08298 -1.30769
H -5.02705 3.75148 -1.50044
H -1.59644 -6.99633 -4.70806
H -3.82651 -11.1577 -4.77685
H -7.88129 -9.04782 1.99612
H -5.67163 -4.93823 2.04393
H 4.97622 -3.80137 1.51972
H 9.64478 -3.51017 1.61401
H 9.39704 2.4317 -3.94386
H 4.7177 2.14635 -4.04798
H 13.5478 -2.16506 -0.81296
H 13.2166 0.855101 0.578634
H 13.4439 0.5518 -2.74124
H -9.37947 -15.297 -0.53347
H -10.5088 -12.1379 0.0519675
H -8.06441 -13.4868 2.03221
H 5.37589 4.56917 0.0625499
H 7.547 4.36432 4.22297
H 5.45337 6.09909 8.05401
H 1.19355 8.04456 7.71764
H -5.11983 7.51979 2.6647

[FR-NORM-COORD]
Vibration 1
-0.00566918 -0.0126612 0.00982658
-0.00566918 -0.0115273 0.00812582
-0.00661404 -0.0107714 0.0179524
-0.0075589 -0.0113384 0.0289128
-0.0075589 -0.0122832 0.0302356
-0.00661404 -0.0130391 0.0226767
-0.00831479 -0.0126612 0.0362827
-0.00661404 -0.0143619 0.0268341
-0.00661404 -0.0153068 0.0309915
-0.00453534 -0.0130391 -0.00377945
-0.00548021 0 -0.0162516
-0.00434637 -0.000188973 -0.0306136
-0.0020787 -0.013984 -0.0325033
-0.000944863 -0.0272121 -0.020409
-0.00226767 -0.0266451 -0.00604712
-0.00113384 -0.0126612 -0.0472432
-0.00661404 -0.0100155 0.0145509
-0.0041574 -0.0109604 0.0113384
-0.00396842 -0.0107714 0.00718096
-0.00661404 -0.00982658 0.0062361
-0.00925966 -0.00888171 0.00944863
-0.00944863 -0.00888171 0.013606
-0.00642507 -0.00982658 0.00170075
0.000377945 -0.0255113 -0.0510226
-0.00718096 -0.0122832 0.0230547
-0.0062361 -0.0111494 0.00377945
0.00642507 0.0143619 -0.00264562
0.0170075 0.0387394 -0.00831479
0.0151178 0.0349599 -0.00944863
0.00736993 0.0162516 -0.00302356
0.0192752 0.0442196 -0.00812582
0.0306136 0.0706758 -0.013795
0.0292908 0.0672742 -0.013984
0.0160627 0.041574 -0.0355268
-0.0160627 -0.02759 -0.00718096
0.0130391 0.0230547 0.0257003
-0.00472431 -0.0109604 -0.00132281
-0.00925966 -0.0130391 0.0491329
-0.00736993 0.0107714 -0.0145509
-0.00529123 0.0100155 -0.0404401
0.000944863 -0.0377945 -0.0217318
-0.00151178 -0.0368497 0.00340151
-0.00226767 -0.0119053 0.0119053
-0.00188973 -0.0113384 0.00472431
-0.0113384 -0.00812582 0.00869274
-0.0115273 -0.00812582 0.0162516
-0.00604712 -0.0102045 -0.00245664
-0.00377945 -0.0122832 0.00226767
-0.00944863 -0.0075589 0.00151178
0.000188973 -0.020976 -0.0638727
0.000188973 -0.0251334 -0.0408181
0.00188973 -0.0387394 -0.0521564
-0.00151178 -0.0041574 0.000944863
0.0198421 0.0457314 -0.00774788
0.0406291 0.0935414 -0.0181414
0.0377945 0.0869274 -0.0188973
0.0103935 0.0173855 0.0258892
Vibration 2
0.00510226 -0.00359048 -0.00188973
0.00510226 -0.00529123 -0.00907068
0.00718096 -0.00642507 -0.00831479
0.00793685 -0.00566918 -0.00151178
0.00812582 -0.00396842 0.00188973
0.00642507 -0.00264562 0.00321253
0.0107714 -0.00264562 0.00075589
0.00661404 -0.00075589 0.00925966
0.00661404 0.000944863 0.0141729
0.00340151 -0.00264562 0
-0.00264562 -0.00188973 -0.00226767
-0.00434637 -0.00113384 -0.000188973
0.000377945 -0.000944863 0.00434637
0.00642507 -0.00170075 0.00642507
0.00793685 -0.00245664 0.00434637
-0.00170075 -0.000188973 0.00585815
0.00718096 -0.00680301 -0.0170075
0.0147399 -0.0313695 -0.047999
0.0151178 -0.0326923 -0.0576366
0.00831479 -0.00907068 -0.0360938
0.00075589 0.0160627 -0.00491329
0.00075589 0.0170075 0.00434637
0.00869274 -0.0105825 -0.0464873
0.00283459 -0.000188973 0.0107714
0.013606 -0.00434637 0.00188973
0.0134171 -0.00982658 0.0166296
-0.00699199 -0.00604712 0.0260782
-0.0179524 0.0170075 0.00982658
-0.00907068 0.034204 -0.0213539
-0.0173855 -0.0247554 0.0536682
-0.0379835 -0.0187083 0.0648176
-0.047999 0.00604712 0.047999
-0.0383614 0.0234326 0.020598
0.0020787 0.0440306 -0.0496998
0.0281569 -0.0168186 0.0251334
-0.0154958 0.0381725 -0.0147399
0.00340151 -0.00642507 -0.0154958
0.0111494 -0.000188973 -0.0041574
-0.00642507 -0.0020787 -0.00566918
-0.00907068 -0.000566918 -0.00188973
0.0100155 -0.00151178 0.00982658
0.0126612 -0.00283459 0.00604712
0.020787 -0.0502667 -0.0642507
0.020787 -0.0523454 -0.0818251
-0.00453534 0.034771 0.0122832
-0.00491329 0.0366607 0.0289128
0.00982658 -0.0105825 -0.0525344
0.0151178 -0.0124722 -0.0472432
0.00188973 -0.00812582 -0.0487549
0 0.000566918 0.0111494
0.00340151 0.00075589 0.0160627
0.00812582 -0.00151178 0.00850377
-0.00888171 -0.0442196 0.0667073
-0.0461093 -0.0334482 0.0863605
-0.0638727 0.0113384 0.0565028
-0.0461093 0.0417629 0.0075589
-0.00793685 0.0464873 -0.0372276
Vibration 3
-0.00925966 0.0075589 -0.00472431
-0.00925966 0.00680301 -0.00604712
-0.00907068 0.00642507 -0.00377945
-0.00774788 0.00680301 -0.00302356
-0.00793685 0.0075589 0
-0.00850377 0.00774788 0.00075589
-0.00718096 0.00793685 0.00226767
-0.00850377 0.00736993 0.00793685
-0.00869274 0.0062361 0.0147399
-0.00661404 0.00604712 -0.00793685
-0.0126612 0.0156847 -0.0185193
-0.00132281 0.00982658 -0.0173855
0.0166296 -0.00604712 -0.00529123
0.0194642 -0.013795 0.00245664
0.00736993 -0.00718096 0.00075589
0.0302356 -0.0124722 -0.00264562
-0.00869274 0.0020787 0.000188973
-0.0171965 0.0202201 0.0255113
-0.0170075 0.0149288 0.0306136
-0.00888171 -0.00850377 0.0102045
-0.00075589 -0.0268341 -0.0149288
-0.000944863 -0.0213539 -0.0198421
-0.00869274 -0.0130391 0.0154958
0.0568808 -0.0338261 0.0160627
-0.00680301 0.00831479 -0.000944863
-0.00604712 0.00699199 -0.00188973
-0.00491329 -0.00774788 -0.00188973
0.00529123 0.00170075 -0.00075589
0.0188973 0.0304246 -0.00264562
-0.0158737 -0.0338261 -0.00302356
-0.0181414 -0.0517785 -0.00264562
-0.00888171 -0.0436527 -0.00113384
0.00321253 -0.0164406 -0.000377945
0.0421409 0.0362827 -0.000188973
-0.00736993 0.0153068 -0.000377945
0.00151178 0.0517785 -0.0103935
-0.00944863 0.00661404 -0.00850377
-0.00736993 0.00831479 0.00510226
-0.0255113 0.02759 -0.0266451
-0.00529123 0.0166296 -0.0247554
0.0309915 -0.0249444 0.0100155
0.0096376 -0.0130391 0.00680301
-0.0239995 0.0387394 0.0406291
-0.0234326 0.0294797 0.0504557
0.00585815 -0.0449755 -0.0306136
0.00529123 -0.0353379 -0.0391173
-0.0134171 -0.0105825 0.0540462
-0.0113384 0.0170075 -0.00529123
-0.00132281 -0.0474321 0.00132281
0.0680301 -0.0374166 0.0177634
0.0440306 -0.0493218 0.0362827
0.0782347 -0.0298577 0.00718096
-0.0232436 -0.0408181 -0.0041574
-0.0272121 -0.0721875 -0.00340151
-0.0107714 -0.0585815 -0.00075589
0.0113384 -0.00944863 0.000566918
0.0119053 0.0714316 -0.0198421
Vibration 4
-0.00491329 0.00491329 -0.0183303
-0.00529123 0.000566918 -0.0238105
-0.00170075 -0.00113384 -0.0145509
0.00113384 0.000377945 -0.00925966
0.00113384 0.0041574 -0.00944863
-0.0020787 0.00642507 -0.0100155
0.00434637 0.00548021 -0.00680301
-0.0020787 0.00812582 0.00075589
-0.00188973 0.00850377 0.0105825
-0.00869274 0.00680301 -0.0162516
-0.0449755 0.0224877 -0.0400622
-0.0438416 0.0215429 -0.0328812
-0.00396842 0.00510226 -0.00075589
0.0298577 -0.00850377 0.020976
0.0264562 -0.00661404 0.0124722
-0.00377945 0.0041574 0.00548021
-0.00170075 -0.00529123 -0.00585815
-0.00907068 -0.0241885 -0.0179524
-0.00907068 -0.0279679 -0.00642507
-0.00151178 -0.0126612 0.0175745
0.00604712 0.00585815 0.0291018
0.0062361 0.00944863 0.0173855
-0.00188973 -0.0153068 0.0309915
0.0464873 -0.0187083 0.048188
0.00680301 0.00340151 -0.00245664
0.00661404 0.00151178 -0.00113384
0.00472431 0.00661404 -0.000377945
-0.00170075 -0.000377945 -0.00075589
-0.00888171 -0.0151178 0
0.0103935 0.0200311 0.000566918
0.0102045 0.0272121 0.000944863
0.0041574 0.020976 0.000377945
-0.0020787 0.00699199 -0.000377945
-0.020976 -0.0181414 -0.00170075
0.00850377 -0.00245664 -0.000944863
0 -0.0264562 0.00453534
-0.00850377 -0.00132281 -0.0334482
0.00434637 0.00793685 -0.00774788
-0.0736993 0.034771 -0.0631168
-0.0718096 0.0328812 -0.0504557
0.0582036 -0.0202201 0.0440306
0.0525344 -0.0162516 0.0281569
-0.0149288 -0.0362827 -0.0360938
-0.0153068 -0.0427078 -0.0156847
0.0122832 0.0173855 0.0474321
0.0120942 0.0234326 0.0260782
-0.00434637 -0.0145509 0.0466762
-0.00925966 -0.00604712 0.0270231
0.00718096 -0.0262672 0.0298577
0.0406291 -0.0171965 0.048566
0.0372276 -0.02759 0.0984547
0.0956201 -0.0266451 0.0270231
0.0151178 0.0253223 0.000944863
0.0147399 0.0376055 0.00151178
0.0041574 0.0270231 0.000566918
-0.00718096 0.00170075 -0.000566918
-0.00566918 -0.0368497 0.0107714
Vibration 5
0.0145509 -0.00982658 0.0120942
0.0143619 -0.0075589 0.00170075
0.0111494 -0.00566918 -0.0041574
0.00831479 -0.00736993 -0.00718096
0.00831479 -0.00982658 0.00245664
0.0115273 -0.0115273 0.0175745
0.00510226 -0.0115273 -0.0041574
0.0111494 -0.0158737 0.0402512
0.0109604 -0.0202201 0.0610381
0.0113384 -0.00812582 0.0124722
-0.0226767 0.00925966 -0.0122832
-0.0396842 0.0183303 -0.0230547
-0.0213539 0.0102045 -0.00850377
0.0181414 -0.0096376 0.020409
0.0340151 -0.0183303 0.0306136
-0.0470542 0.0238105 -0.0258892
0.0109604 0.0020787 -0.00453534
0.0147399 0.0190862 0.00907068
0.013606 0.0355268 0.0171965
0.00850377 0.034204 0.0115273
0.00491329 0.0141729 -0.00510226
0.00604712 -0.00188973 -0.0132281
0.00642507 0.0544241 0.0236216
-0.0381725 0.0217318 -0.0175745
0.00264562 -0.00944863 -0.0117163
0.00226767 -0.00661404 -0.0107714
-0.00132281 -0.0096376 -0.00888171
-0.00453534 -0.0107714 -0.0102045
-0.00113384 -0.00396842 -0.0158737
-0.00340151 -0.013795 -0.00510226
-0.0096376 -0.020787 -0.00226767
-0.013606 -0.0236216 -0.00302356
-0.0109604 -0.0181414 -0.00699199
0.00396842 -0.00113384 -0.0215429
0.00359048 -0.00377945 -0.00888171
-0.00472431 -0.000566918 -0.0149288
0.0162516 -0.00642507 -0.00170075
0.00491329 -0.0143619 -0.0020787
-0.0368497 0.0158737 -0.0234326
-0.0678412 0.0325033 -0.0432747
0.0353379 -0.0177634 0.034204
0.0633058 -0.0325033 0.0514005
0.0183303 0.020787 0.013606
0.0166296 0.0496998 0.0287238
0.00075589 0.0119053 -0.0111494
0.00302356 -0.0162516 -0.0249444
0.0185193 0.0593374 0.0154958
-0.00850377 0.048188 0.0336371
0.00718096 0.0710537 0.0326923
-0.0699199 0.0381725 -0.0400622
-0.0228657 0.0440306 0.0181414
-0.0192752 -0.0164406 -0.027401
-0.000566918 -0.0119053 -0.00434637
-0.0113384 -0.0241885 0.00075589
-0.0187083 -0.0300466 -0.000566918
-0.013606 -0.0200311 -0.00774788
-0.00226767 0.00340151 -0.0194642
Vibration 6
-0.00585815 -0.00548021 -0.0177634
-0.00566918 -0.00661404 -0.0177634
-0.00529123 -0.00699199 -0.0122832
-0.00510226 -0.00680301 -0.00340151
-0.00491329 -0.00548021 -0.00491329
-0.00548021 -0.00510226 -0.0160627
-0.00151178 -0.00359048 0.00680301
-0.00548021 -0.0041574 -0.0268341
-0.00529123 -0.00340151 -0.0379835
-0.00718096 -0.00472431 -0.013606
-0.00925966 -0.0113384 -0.00793685
-0.00850377 -0.0119053 0.00170075
-0.00585815 -0.00604712 0.00604712
-0.00529123 0.00132281 -0.000377945
-0.00604712 0.00170075 -0.0102045
-0.00377945 -0.00831479 0.0171965
-0.00566918 -0.00151178 -0.0113384
-0.00188973 0.00434637 -0.00831479
-0.00377945 0.0213539 0.0020787
-0.00850377 0.0323143 0.0096376
-0.0115273 0.0217318 0.00264562
-0.0105825 0.00472431 -0.00774788
-0.0103935 0.0455424 0.0285349
0.00302356 -0.00453534 0.0258892
0.00359048 -0.00680301 0.0128501
0.00529123 -0.0145509 0.00944863
0.00850377 -0.0105825 0.00793685
0.013795 0.00075589 0.00548021
0.0168186 0.00718096 0.0020787
0.0062361 -0.0158737 0.00925966
0.00869274 -0.00982658 0.00831479
0.013606 0.00170075 0.00585815
0.0160627 0.00699199 0.0041574
0.0236216 0.0119053 -0.0100155
0.00453534 -0.0215429 0.00699199
0.0115273 0.0075589 0.0147399
-0.00604712 -0.00680301 -0.020976
-0.00132281 0.000188973 0.00888171
-0.0111494 -0.0160627 -0.0113384
-0.0096376 -0.0171965 0.0062361
-0.0041574 0.00642507 0.00226767
-0.00548021 0.00718096 -0.0151178
0.00151178 -0.00302356 -0.013795
0.000377945 0.02759 0.00491329
-0.0164406 0.0281569 0.00585815
-0.0132281 -0.00151178 -0.0117163
0.00113384 0.0183303 -0.232247
-0.013606 -0.177256 0.190484
-0.0194642 0.288372 0.148532
0.00548021 -0.00869274 0.0359048
-0.000188973 -0.00869274 0.0245664
0.00831479 0.00585815 0.0239995
0.00283459 -0.0241885 0.0109604
0.00680301 -0.013795 0.00925966
0.0156847 0.00661404 0.00491329
0.0200311 0.0160627 0.0020787
0.0134171 0.0105825 0.0113384
Vibration 7
-0.00359048 -0.00736993 -0.0179524
-0.00340151 -0.00812582 -0.0188973
-0.00321253 -0.00831479 -0.0134171
-0.00321253 -0.00812582 -0.00396842
-0.00302356 -0.00718096 -0.00472431
-0.00340151 -0.00699199 -0.0156847
-0.000377945 -0.00566918 0.00774788
-0.00321253 -0.0062361 -0.0255113
-0.00321253 -0.00529123 -0.0357158
-0.00529123 -0.00642507 -0.0130391
-0.00604712 -0.0147399 -0.00566918
-0.00774788 -0.0141729 0.00359048
-0.00888171 -0.00510226 0.00529123
-0.00888171 0.00359048 -0.00245664
-0.00699199 0.00245664 -0.0117163
-0.0100155 -0.00566918 0.0153068
-0.00340151 -0.00302356 -0.0122832
-0.000377945 0.00170075 -0.0111494
-0.00113384 0.0173855 -0.000566918
-0.00604712 0.027779 0.00850377
-0.00944863 0.0200311 0.00264562
-0.00774788 0.00453534 -0.00774788
-0.00907068 0.0595264 0.0224877
-0.00944863 0.00264562 0.0196532
0.00377945 -0.00850377 0.0145509
0.00510226 -0.0147399 0.0109604
0.00831479 -0.0100155 0.00944863
0.0130391 0.00151178 0.00680301
0.0143619 0.0041574 0.0041574
0.00642507 -0.013795 0.0109604
0.0096376 -0.00529123 0.0096376
0.0147399 0.00718096 0.00680301
0.0162516 0.0103935 0.00529123
0.0179524 0.00812582 -0.00812582
0.00396842 -0.020409 0.00869274
0.0113384 0.00170075 0.0177634
-0.00359048 -0.00812582 -0.0224877
-0.000377945 -0.00245664 0.00982658
-0.00529123 -0.0219208 -0.00699199
-0.00812582 -0.020598 0.0096376
-0.0100155 0.0109604 -0.00132281
-0.00661404 0.00888171 -0.0173855
0.00321253 -0.00642507 -0.0171965
0.000188973 0.0215429 0.00245664
-0.0119053 0.0266451 0.00831479
-0.0105825 -0.000377945 -0.0103935
0.00699199 0.101289 0.292341
-0.0438416 0.290262 -0.131525
0.00604712 -0.168375 -0.0871164
-0.00907068 -0.00075589 0.0289128
-0.0096376 0.00188973 0.013795
-0.00888171 0.0120942 0.0198421
0.00283459 -0.0230547 0.0130391
0.00812582 -0.00850377 0.0109604
0.0173855 0.0145509 0.00566918
0.0200311 0.0198421 0.00283459
0.0119053 0.00188973 0.0156847
Vibration 8
-0.0162516 0.0096376 0.00151178
-0.0154958 0.00434637 -0.0130391
-0.00925966 0.000188973 -0.0147399
-0.00472431 0.00302356 -0.0134171
-0.00434637 0.00888171 -0.000188973
-0.0105825 0.0130391 0.0166296
0.00491329 0.0132281 -0.0041574
-0.0102045 0.0251334 0.0546131
-0.0096376 0.0385504 0.0914627
-0.0145509 0.00888171 -0.00113384
0.0187083 -0.0020787 0.0170075
0.0330702 -0.00925966 0.0168186
0.0109604 -0.00604712 -0.00245664
-0.0270231 0.0062361 -0.0243775
-0.0389284 0.0128501 -0.0228657
0.0325033 -0.0162516 0.00245664
-0.00944863 -0.00245664 -0.0132281
-0.0117163 -0.0164406 -0.0251334
-0.0124722 -0.00888171 -0.0109604
-0.0111494 0.0128501 0.0151178
-0.00831479 0.0224877 0.0222988
-0.00736993 0.0145509 0.00774788
-0.0130391 0.0268341 0.0366607
0.013795 -0.0160627 -0.0168186
0.0158737 0.00736993 -0.0100155
0.0183303 -0.00699199 -0.0113384
0.0145509 -0.00566918 -0.0096376
0.00453534 -0.0154958 -0.0103935
0.00453534 -0.0153068 -0.0179524
0.0173855 0.00245664 -0.00472431
0.00850377 -0.00434637 -0.000188973
-0.00377945 -0.0188973 -0.000377945
-0.00548021 -0.0234326 -0.00548021
0.00642507 -0.0100155 -0.0385504
0.0228657 -0.0198421 -0.0115273
0.00245664 -0.0213539 0.00151178
-0.0194642 0.00188973 -0.020976
0.00510226 0.0213539 -0.000566918
0.0349599 -0.00472431 0.0311805
0.0612271 -0.0177634 0.0319364
-0.0462983 0.0102045 -0.041196
-0.0667073 0.0202201 -0.0370386
-0.0128501 -0.0325033 -0.0438416
-0.0145509 -0.0188973 -0.0192752
-0.00680301 0.0370386 0.0402512
-0.00548021 0.0230547 0.0143619
-0.00472431 0.0319364 0.0444086
-0.0319364 0.0306136 0.0406291
-0.00472431 0.0306136 0.0425188
0.041196 -0.027401 -0.00529123
0.00321253 -0.0319364 -0.0532903
-0.0130391 0.0103935 -0.00434637
0.0270231 0.0141729 -0.00434637
0.0105825 0.00132281 0.00359048
-0.0119053 -0.0260782 0.00359048
-0.0141729 -0.0334482 -0.00548021
0.00075589 -0.0238105 0.00529123
Vibration 9
0.00888171 -0.0115273 -0.0243775
0.00888171 -0.00831479 -0.0428968
0.00680301 -0.00699199 -0.0360938
0.00604712 -0.00699199 -0.0257003
0.00585815 -0.00982658 -0.0126612
0.00793685 -0.0119053 -0.00736993
-0.00264562 -0.0134171 -0.00170075
0.00774788 -0.0132281 0.0192752
0.00774788 -0.0141729 0.0432747
0.00982658 -0.0120942 -0.0141729
0.0134171 -0.0258892 -0.000566918
0.00925966 -0.0241885 0.0102045
0.000377945 -0.00831479 0.00642507
-0.000944863 0.00396842 -0.00491329
0.00453534 0.000944863 -0.0147399
-0.00642507 -0.00642507 0.0162516
0.00699199 -0.00982658 -0.0257003
-0.00453534 -0.0264562 -0.0317474
-0.00529123 -0.02759 -0.00944863
0.00642507 -0.0111494 0.0190862
0.0188973 0.00226767 0.0215429
0.0192752 0.00245664 -0.00151178
0.00510226 -0.00831479 0.048377
-0.0300466 0.0188973 0.00245664
-0.0160627 -0.00680301 0.0020787
-0.0211649 0.0194642 0.00302356
-0.0160627 0.0122832 0.000944863
-0.00245664 0.0181414 0.00548021
0.000188973 0.0239995 0.0202201
-0.0192752 0.00226767 -0.00907068
-0.00831479 0.000566918 -0.0151178
0.00680301 0.00982658 -0.0109604
0.0100155 0.0181414 -0.00075589
0.00302356 0.0153068 0.0604712
-0.0287238 0.0468652 0.00491329
-0.000566918 0.041196 -0.0185193
0.0105825 -0.00718096 -0.0578256
-0.00340151 -0.0215429 -0.000566918
0.0187083 -0.0379835 0.000566918
0.0122832 -0.034393 0.020409
-0.00585815 0.0156847 -0.00604712
0.00396842 0.00944863 -0.0222988
-0.013606 -0.0385504 -0.0521564
-0.0149288 -0.0402512 -0.013606
0.0283459 0.0132281 0.0417629
0.0289128 0.0115273 -0.000566918
0.00548021 -0.00812582 0.0472432
-0.0130391 -0.0166296 0.0610381
0.020976 0.00264562 0.0616051
-0.0377945 0.0185193 0.00907068
-0.0198421 0.0306136 -0.0217318
-0.0495108 0.0245664 0.0107714
-0.0302356 -0.00340151 -0.0124722
-0.0111494 -0.00718096 -0.0230547
0.0162516 0.0102045 -0.0158737
0.0213539 0.0253223 0.00226767
0.0041574 0.0502667 -0.0221098
Vibration 10
-0.0128501 -0.00188973 0.0234326
-0.0124722 -0.00812582 0.0334482
-0.00718096 -0.0113384 0.0200311
-0.00359048 -0.00944863 0.00302356
-0.00321253 -0.00283459 -0.00529123
-0.00831479 0.000377945 0.00774788
0.00831479 0.000944863 -0.0394953
-0.00793685 0.00661404 0.0041574
-0.00774788 0.0120942 0.00226767
-0.0151178 -0.000944863 0.0158737
-0.0124722 0.00944863 0.00680301
-0.00793685 0.0075589 -0.00491329
-0.00566918 -0.00566918 -0.00661404
-0.0107714 -0.0149288 0.000188973
-0.0158737 -0.0119053 0.0111494
0.00226767 -0.00812582 -0.0171965
-0.0075589 -0.00831479 0.0107714
0.0062361 -0.00888171 -0.0020787
0.00585815 0.00472431 -0.0111494
-0.00869274 0.0185193 -0.00699199
-0.0222988 0.0168186 0.00302356
-0.0211649 0.00283459 0.0115273
-0.00982658 0.0372276 -0.013795
0.0190862 -0.0313695 -0.0096376
0.0173855 -0.00170075 -0.0417629
0.0188973 -0.020598 -0.00585815
0.00340151 -0.00793685 0.00226767
0.00529123 0.00453534 -0.00245664
0.00548021 0.00340151 0.0103935
0.00453534 -0.00642507 0.00982658
0.00793685 0.0103935 0.00831479
0.0113384 0.027401 0.00264562
0.0109604 0.0238105 -0.00359048
-0.00604712 -0.0251334 0.116407
0.0423299 -0.0440306 0.00321253
0.0177634 0.0408181 -0.111683
-0.0168186 -0.0107714 0.0472432
0.0105825 0.00925966 -0.0670853
-0.0128501 0.0190862 0.00944863
-0.00548021 0.0156847 -0.0117163
-0.0111494 -0.0243775 -0.00283459
-0.020598 -0.0187083 0.0160627
0.0177634 -0.0192752 -0.00453534
0.0166296 0.00453534 -0.020787
-0.0338261 0.0266451 0.00510226
-0.0319364 0.00264562 0.0202201
0.00321253 0.0438416 -0.0126612
-0.0141729 0.0438416 -0.0170075
-0.0196532 0.0398732 -0.0170075
0.0298577 -0.0321253 -0.0158737
0.00888171 -0.0436527 0.0062361
0.0309915 -0.034393 -0.0149288
0.00453534 -0.0168186 0.013984
0.00831479 0.0115273 0.0115273
0.0145509 0.0436527 0.00151178
0.0126612 0.0387394 -0.00925966
0.0260782 0.0568808 -0.119998
Vibration 11
-0.000566918 -0.00188973 0.0187083
-0.00075589 -0.00188973 0.027779
-0.000377945 -0.0020787 0.0260782
-0.00132281 -0.00188973 0.0257003
-0.000944863 -0.00188973 0.0179524
-0.000944863 -0.00226767 0.00888171
-0.00283459 -0.00226767 0.0154958
-0.000944863 -0.00566918 -0.0185193
-0.00113384 -0.0107714 -0.0455424
-0.000566918 -0.00188973 0.013606
-0.00377945 0.00566918 0.00585815
-0.00434637 0.00604712 -0.000944863
-0.00075589 -0.00132281 0.000188973
0.00340151 -0.00907068 0.00831479
0.00302356 -0.00888171 0.0147399
-0.00170075 0.000188973 -0.00812582
-0.000566918 -0.00188973 0.0187083
0.0100155 -0.0379835 -0.0264562
0.0100155 -0.034582 -0.0332592
0.000188973 0.00718096 0.00680301
-0.00944863 0.0410071 0.048566
-0.00888171 0.034393 0.0525344
-0.000377945 0.0168186 0.00453534
0.00151178 -0.00774788 -0.00793685
-0.0062361 0.000188973 0.000188973
-0.00774788 0.0132281 -0.0147399
0.0020787 0.0132281 -0.0194642
0.000944863 -0.0109604 -0.00888171
0.0113384 0.0117163 -0.0041574
0.00736993 0.0241885 -0.0315584
0.00340151 -0.00944863 -0.0308025
-0.00604712 -0.0519675 -0.0170075
-0.00548021 -0.048377 -0.00661404
0.0359048 0.0192752 -0.00661404
-0.0185193 0.0154958 -0.0215429
-0.00736993 0.0304246 -0.000566918
-0.00188973 -0.00264562 0.0326923
-0.00377945 -0.00510226 0.0264562
-0.00642507 0.0113384 0.00548021
-0.00736993 0.0119053 -0.00736993
0.00642507 -0.0151178 0.00944863
0.00548021 -0.013984 0.0200311
0.0185193 -0.0695419 -0.0546131
0.0175745 -0.0640617 -0.068975
-0.0170075 0.0718096 0.0780457
-0.0160627 0.0574477 0.0816362
0.00774788 0.0219208 0.0117163
-0.00434637 0.0260782 -0.00075589
-0.00529123 0.0130391 0.000188973
-0.000944863 -0.0041574 -0.0164406
0.0020787 -0.00642507 0.00188973
0.00548021 -0.0177634 -0.0100155
0.0153068 0.0583925 -0.041385
0.00661404 -0.00396842 -0.0408181
-0.0130391 -0.0852266 -0.0147399
-0.00925966 -0.0744552 0.00359048
0.000944863 0.048188 -0.00264562
Vibration 12
0.00604712 -0.0132281 0.00774788
0.00680301 -0.0190862 0.013606
0.0120942 -0.0221098 0.0117163
0.0179524 -0.0177634 0.00982658
0.0187083 -0.0120942 0.0100155
0.0134171 -0.00907068 0.00888171
0.0160627 -0.0126612 0.00812582
0.013795 0.00226767 0.0075589
0.0145509 0.0158737 0.0075589
-0.00812582 -0.00529123 -0.00359048
0.00340151 -0.0141729 0.00736993
-0.0124722 -0.00548021 -0.00321253
-0.0379835 0.00888171 -0.0222988
-0.0572587 0.0213539 -0.0389284
-0.0423299 0.0130391 -0.0296687
-0.0468652 0.013795 -0.0279679
0.0126612 -0.020598 0.00491329
0.0234326 -0.00793685 0.00774788
0.0230547 0.00585815 0.00264562
0.0120942 0.00642507 -0.00585815
0.00151178 -0.00925966 -0.0120942
0.00245664 -0.0226767 -0.0062361
0.0107714 0.0255113 -0.00850377
0.0531013 -0.0404401 0.0534792
0.00604712 -0.00850377 0.00132281
-0.000944863 0.0230547 -0.00226767
-0.00226767 0.0143619 -0.00188973
-0.00491329 0.00699199 0
-0.00718096 0.00302356 0
-0.00340151 0.0115273 -0.0041574
-0.00566918 0.00434637 -0.00321253
-0.00718096 -0.00151178 -0.00132281
-0.00718096 -0.000566918 0.00075589
-0.0113384 0.00283459 -0.00377945
-0.00850377 0.055369 0.000944863
-0.00396842 -0.0020787 0.00434637
0.00283459 -0.0211649 0.0171965
0.0149288 -0.0173855 0.0126612
0.0264562 -0.0283459 0.0243775
-0.00245664 -0.0117163 0.00510226
-0.0852266 0.0381725 -0.0600933
-0.0568808 0.0211649 -0.0408181
0.0325033 -0.00831479 0.0143619
0.0313695 0.0166296 0.00604712
-0.0075589 -0.0103935 -0.020787
-0.00510226 -0.034204 -0.0107714
0.0238105 0.0311805 -0.0151178
0.00453534 0.0247554 -0.00566918
0.00321253 0.0364717 -0.00661404
0.0835259 -0.0574477 0.0788016
0.0119053 -0.0905179 0.119053
0.134926 -0.0120942 0.020409
-0.00377945 0.013606 -0.00529123
-0.00642507 0.00283459 -0.00377945
-0.00850377 -0.00718096 -0.00075589
-0.00850377 -0.00661404 0.00283459
-0.00585815 -0.00642507 0.00434637
Vibration 13
-0.0147399 -0.000188973 0.02759
-0.013984 -0.0126612 0.0315584
-0.00245664 -0.0200311 -0.00434637
0.00831479 -0.0130391 -0.0270231
0.00925966 -0.00113384 -0.0149288
-0.00245664 0.00548021 0.00321253
0.0170075 0.00340151 -0.0168186
-0.00188973 0.0202201 -0.0115273
-0.00113384 0.0353379 -0.0287238
-0.0168186 0.000377945 0.0291018
-0.0190862 0.0158737 0.013606
-0.00548021 0.0096376 0.00472431
0.00888171 -0.0134171 0.0115273
0.0103935 -0.0294797 0.0258892
-0.00321253 -0.020976 0.034393
0.0270231 -0.020598 0.00113384
-0.00226767 -0.0287238 -0.0173855
0.00264562 -0.0251334 -0.0181414
0.00151178 -0.0109604 -0.0113384
-0.00434637 0.000188973 -0.00340151
-0.00774788 -0.0153068 -0.0156847
-0.00642507 -0.0300466 -0.0226767
-0.00793685 0.0328812 0.0217318
-0.0166296 -0.0185193 -0.0438416
0.0147399 0.00113384 -0.00453534
0.00680301 0.0309915 0.00321253
0.00321253 0.00680301 0.00548021
0.00642507 0.0130391 0.00434637
0.000377945 -0.000377945 0
-0.00453534 -0.0103935 0.00642507
-0.00377945 -0.00888171 0.0062361
0.00585815 0.0107714 0.00264562
0.0096376 0.0196532 0.00245664
-0.0151178 -0.000566918 -0.0171965
0.00302356 0.0840928 0.0143619
0.0124722 -0.0200311 0.0156847
-0.0236216 -0.0185193 0.0559359
0.0170075 0.00680301 -0.0236216
-0.0308025 0.0338261 0.00831479
-0.00661404 0.0217318 -0.00699199
0.0228657 -0.0487549 0.0319364
-0.00340151 -0.0323143 0.0444086
0.00718096 -0.0309915 -0.020787
0.00510226 -0.00566918 -0.00907068
-0.0119053 -0.0134171 -0.0166296
-0.00907068 -0.0400622 -0.0300466
0.0124722 0.0432747 0.0230547
-0.0370386 0.0338261 0.0319364
-0.00264562 0.0498888 0.0328812
-0.0154958 -0.0109604 -0.0667073
-0.00642507 -0.00699199 -0.0702978
-0.0572587 -0.0357158 -0.02759
-0.0113384 -0.0245664 0.00869274
-0.0096376 -0.0219208 0.00869274
0.0096376 0.0171965 0.000944863
0.0151178 0.0296687 0.000566918
0.00510226 -0.0360938 0.0177634
Vibration 14
-0.00548021 -0.00869274 -0.0264562
-0.00472431 -0.0160627 -0.0222988
0.000944863 -0.0196532 0.0113384
0.00774788 -0.0153068 0.0319364
0.00869274 -0.0075589 0.0179524
0.00226767 -0.00434637 -0.0041574
0.0153068 -0.0041574 0.0188973
0.00283459 0.0103935 0.00264562
0.00377945 0.0291018 0.0124722
-0.0124722 -0.00548021 -0.0340151
-0.02759 -0.00793685 -0.0357158
-0.0185193 -0.013984 -0.0154958
0.00434637 -0.0168186 0.00472431
0.00850377 -0.00793685 -0.00188973
0.000377945 -0.00396842 -0.020787
0.0287238 -0.0323143 0.0402512
0.000944863 -0.0153068 0.0145509
0.0100155 0.00396842 0.0247554
0.0100155 0.0154958 0.0156847
-0.00075589 0.00472431 -0.00566918
-0.0113384 -0.0109604 -0.0120942
-0.0107714 -0.0192752 0.000188973
-0.000377945 0.0107714 -0.0255113
-0.0308025 0.013606 -0.00226767
0.0171965 -0.00529123 0.00302356
0.0130391 0.0122832 -0.00283459
0.00907068 0.0219208 -0.00151178
-0.00831479 -0.00491329 0.00170075
-0.00491329 0.00302356 -0.00170075
0.0196532 0.0462983 -0.00188973
0.00944863 0.0353379 0.00321253
-0.0153068 -0.00925966 0.00982658
-0.0239995 -0.0283459 0.00925966
0.00510226 0.0041574 0.00585815
0.0105825 0.0158737 -0.00359048
-0.0122832 0.0168186 -0.0149288
-0.00869274 -0.0183303 -0.041385
0.0141729 -0.000377945 0.0296687
-0.0449755 -0.00661404 -0.0512116
-0.0266451 -0.0171965 -0.0145509
0.0213539 -0.00661404 0.0103935
0.00699199 0.000188973 -0.0226767
0.0179524 0.0100155 0.0374166
0.0185193 0.0313695 0.0239995
-0.0202201 -0.0173855 -0.0264562
-0.0190862 -0.0298577 -0.00264562
0.00453534 0.0120942 -0.0334482
0.00925966 0.0107714 -0.0292908
-0.0143619 0.0132281 -0.0309915
-0.0222988 0.00396842 0.0187083
-0.020598 0.0222988 -0.075967
-0.0891951 0.0447865 0.0239995
0.0338261 0.0706758 -0.00491329
0.0196532 0.0582036 0.00264562
-0.0272121 -0.0272121 0.0154958
-0.041574 -0.0595264 0.0145509
-0.00642507 0.0283459 -0.0194642
Vibration 15
-0.00491329 -0.00245664 0.00888171
-0.00510226 0 0
-0.00680301 0.00113384 -0.0281569
-0.00793685 -0.00075589 -0.0445975
-0.00793685 -0.00151178 -0.0264562
-0.00661404 -0.00226767 -0.00680301
0.00283459 0.00434637 -0.0171965
-0.00718096 -0.0154958 -0.0041574
-0.00831479 -0.0394953 -0.00434637
0.00188973 -0.00718096 0.0226767
0.0128501 -0.00888171 0.0262672
0.0102045 -0.00661404 0.0158737
-0.00472431 -0.00548021 0.00264562
-0.00245664 -0.0124722 0.00925966
-0.000566918 -0.0126612 0.0183303
-0.0257003 0.00736993 -0.0264562
-0.00774788 0.00396842 -0.0238105
-0.0183303 0.0120942 -0.0062361
-0.0190862 0.00888171 0.00604712
-0.00944863 -0.00453534 -0.00151178
0.000944863 -0.0100155 -0.0158737
0.000566918 -0.00321253 -0.0247554
-0.00907068 -0.0149288 0.00831479
0.0062361 -0.0219208 -0.00604712
0.0130391 -0.00377945 0.00377945
0.0115273 0.000944863 0.013795
0.0113384 0.00907068 0.0143619
-0.00661404 -0.0224877 0.0194642