[Molden Format]
[FREQ]
-387.9
10.5
19.6
21.2
28.0
29.0
31.2
43.1
44.8
46.7
51.5
62.4
63.8
72.4
85.0
103.5
104.2
117.6
124.8
130.0
143.9
150.8
155.4
168.4
180.6
197.4
202.0
227.1
250.6
258.8
269.9
277.3
306.8
319.6
331.5
337.5
349.8
352.7
357.3
369.9
401.1
404.8
445.3
480.6
484.3
505.0
519.6
523.4
536.7
544.9
575.4
580.0
593.1
612.2
614.7
620.6
631.1
643.4
650.2
668.6
697.5
720.8
731.6
758.6
774.6
796.1
823.6
836.7
859.2
864.3
881.3
882.6
898.6
901.0
903.5
940.6
951.4
972.4
982.1
1003.4
1009.5
1010.4
1017.3
1018.7
1025.2
1033.4
1045.1
1070.7
1076.2
1080.9
1107.7
1126.6
1149.7
1167.5
1178.5
1181.9
1183.5
1184.2
1206.8
1246.9
1255.8
1261.9
1263.2
1264.2
1268.5
1272.1
1282.0
1286.6
1291.9
1299.9
1317.2
1327.9
1329.3
1330.7
1339.5
1348.7
1351.3
1354.6
1357.8
1366.3
1384.2
1395.0
1427.4
1501.9
1519.2
1522.0
1528.0
1533.6
1568.3
1577.6
1596.0
1620.9
1673.2
1698.2
1698.5
1698.7
1706.3
1708.8
1714.3
1787.4
1827.3
1868.3
2018.3
2452.8
2648.6
2651.4
2654.2
2665.3
2672.8
2725.9
2735.3
2743.8
2744.5
2744.6
2745.1
2748.4
2750.6
2757.7
2760.1
2764.2
2765.3
2765.9
2767.7
2770.0
2779.2
       
[FR-COORD]
C -1.86289 -2.96479 -1.11305
C 0.788772 -2.96479 -1.11305
C 2.14087 -0.690128 -1.11305
N 0.850188 1.49402 -1.13251
C -1.81111 1.59228 -1.06751
C -3.21915 -0.687293 -1.09169
N -2.15334 4.05762 -0.792551
C -5.87818 -0.574855 -1.10228
N -8.06516 -0.467518 -1.09736
C -3.18683 -5.39744 -1.12212
C -2.63919 -7.17416 -3.01147
C -3.87337 -9.48038 -3.05285
C -5.6654 -10.008 -1.16237
C -6.22287 -8.26925 0.740773
C -4.97357 -5.95453 0.737371
O -6.71854 -12.3307 -1.41559
C 4.91348 -0.560682 -1.08905
C 6.26255 -1.86799 0.763638
C 8.88266 -1.676 0.848865
C 10.1643 -0.192941 -0.922564
C 8.80499 1.08867 -2.7915
C 6.18526 0.911037 -2.87503
C 12.9709 0.00793685 -0.840739
C -8.66496 -12.9983 0.311994
C -7.08704 8.84033 0.952989
C -1.85118 5.6106 3.61353
C 0.963949 5.77292 3.55363
C 2.36877 5.31656 1.3812
C 1.29692 4.60035 -1.10662
C 2.18509 6.41335 5.80354
C 4.80879 6.58494 5.87573
C 6.22173 6.14539 3.69347
C 5.0057 5.52839 1.44772
O 1.73798 5.45224 -3.14753
O -3.16057 7.44495 3.27508
O -6.65013 7.451 -0.644019
H 1.81225 -4.74472 -1.1242
H -3.67438 5.10094 -1.18769
H -1.24854 -6.72176 -4.46807
H -3.4941 -10.8769 -4.51115
H -7.6086 -8.67743 2.19435
H -5.40046 -4.56633 2.2038
H 5.26345 -3.01827 2.15108
H 9.93448 -2.68284 2.29961
H 9.79823 2.23025 -4.18537
H 5.11624 1.92922 -4.32653
H 13.7529 -0.429913 1.0316
H 13.6385 1.90976 -1.34473
H 13.8455 -1.31865 -2.18679
H -9.20996 -14.8878 -0.355268
H -10.2635 -11.6923 0.167241
H -7.93401 -13.0967 2.24329
H 1.083 6.79375 7.50051
H 5.76007 7.07287 7.63412
H 8.27284 6.28901 3.74506
H 6.10741 5.20506 -0.270042
H -2.6664 3.76282 4.09768

[FR-NORM-COORD]
Vibration 1
-0.0020787 0.00831479 -0.00264562
0.013795 0.0525344 -0.000377945
-0.013606 0.0559359 0.00302356
-0.0228657 0.0846597 0.00510226
-0.055369 0.0410071 0.00869274
-0.00264562 -0.0222988 -0.00661404
-0.206925 -0.0364717 -0.00491329
-0.00226767 -0.0119053 -0.00377945
-0.0020787 -0.000377945 0.000377945
0.0102045 -0.00075589 0.0020787
0.00510226 -0.000188973 0.00132281
0.00132281 0.000944863 0
0.00113384 0.000944863 -0.000377945
0.00226767 0.00151178 -0.00075589
0.00529123 0.000188973 -0.000566918
0.000377945 0.000566918 -0.000188973
-0.00831479 0.0236216 0.00396842
-0.00850377 0.0109604 -0.00264562
-0.00661404 0.00075589 -0.00302356
-0.00113384 -0.000377945 0.000188973
0.00170075 -0.00075589 -0.00245664
0.0020787 0.00472431 -0.00377945
-0.00132281 -0.00132281 0.00113384
0.000377945 0.000944863 -0.000188973
0.00113384 0.00680301 0.00283459
0.00736993 -0.00245664 -0.0179524
0.0102045 -0.0075589 -0.0221098
0.041574 -0.0292908 0.0041574
0.225822 -0.171776 -0.0228657
-0.0020787 0.00359048 -0.0132281
-0.00396842 0.00491329 0.00888171
0.0177634 0.0120942 0.020787
0.0393063 0.00188973 0.0187083
0.0194642 -0.0287238 0.00377945
0.0062361 -0.000377945 0.00472431
-0.0179524 0.00302356 0.00226767
0.0264562 0.0602823 -0.00113384
-0.313883 -0.145509 0.148155
0.00529123 -0.00132281 0.00132281
-0.000566918 0.0020787 -0.00113384
0.000377945 0.00359048 -0.0020787
0.00434637 0.00113384 -0.00151178
-0.0115273 0.0105825 -0.0041574
-0.00982658 -0.00585815 -0.00491329
0.00585815 -0.00793685 -0.00585815
0.0122832 -0.0096376 -0.0196532
-0.00170075 -0.00188973 0.00132281
-0.000377945 -0.00132281 0.00170075
-0.000944863 -0.00113384 0.000944863
0.000188973 0.000944863 0
0.000566918 0.00113384 -0.000377945
0.000377945 0.00113384 -0.000188973
-0.0153068 0.00812582 -0.0219208
-0.0173855 0.00359048 0.0170075
0.0168186 0.0230547 0.0366607
0.0589595 0.00548021 0.0306136
0.0113384 -0.0062361 -0.0236216
Vibration 2
-0.00132281 -0.00925966 0.00793685
-0.00132281 -0.00491329 0.00188973
-0.00529123 -0.00264562 0.00510226
-0.00888171 -0.00472431 0.0154958
-0.00888171 -0.00925966 0.020787
-0.00510226 -0.0115273 0.0168186
-0.0130391 -0.0103935 0.0268341
-0.00529123 -0.0164406 0.0211649
-0.00548021 -0.0211649 0.0241885
0.00302356 -0.0117163 0.00340151
0.00264562 -0.00510226 -0.00283459
0.0075589 -0.0075589 -0.00699199
0.0126612 -0.0168186 -0.00472431
0.0128501 -0.0232436 0.00132281
0.00793685 -0.020598 0.00548021
0.0173855 -0.0185193 -0.00888171
-0.00529123 0.00075589 -0.00566918
0.00434637 -0.00113384 -0.013795
0.00453534 0.000566918 -0.0258892
-0.00472431 0.00377945 -0.0300466
-0.0143619 0.00566918 -0.0215429
-0.0147399 0.0041574 -0.00944863
-0.00434637 0.00453534 -0.0427078
0.0221098 -0.027401 -0.00718096
0.0859825 0.142107 -0.103557
-0.0162516 0.0372276 0.00888171
-0.0143619 0.00869274 0.0181414
-0.0122832 -0.00888171 0.0232436
-0.0134171 -0.00472431 0.0224877
-0.0151178 0.00226767 0.0202201
-0.013795 -0.0196532 0.0270231
-0.0117163 -0.0355268 0.0313695
-0.0107714 -0.0308025 0.0296687
-0.0177634 0.00132281 0.0239995
0.0041574 0.0468652 -0.0175745
0.0338261 0.0572587 -0.0442196
0.00151178 -0.00302356 -0.00566918
-0.0124722 -0.0113384 0.0217318
-0.00132281 0.0020787 -0.00453534
0.00736993 -0.00245664 -0.0117163
0.0166296 -0.0304246 0.00302356
0.00793685 -0.0257003 0.0102045
0.0115273 -0.00377945 -0.0109604
0.0120942 -0.000944863 -0.0325033
-0.0219208 0.00850377 -0.0245664
-0.0221098 0.00566918 -0.00283459
0.0020787 0.0247554 -0.0406291
-0.00529123 -0.00132281 -0.0661404
-0.00982658 -0.0105825 -0.0313695
0.0247554 -0.0266451 -0.0115273
0.0188973 -0.0304246 -0.000188973
0.0258892 -0.0313695 -0.00888171
-0.0162516 0.0145509 0.0166296
-0.0143619 -0.0243775 0.0285349
-0.0105825 -0.0519675 0.0364717
-0.00888171 -0.0438416 0.0334482
-0.0372276 0.0510226 0.0266451
Vibration 3
0.00132281 0.0105825 -0.0224877
0.00132281 0.0096376 -0.020976
0.00226767 0.00907068 -0.0202201
0.00283459 0.00944863 -0.0211649
0.00264562 0.0103935 -0.0262672
0.00188973 0.0109604 -0.0308025
0.00302356 0.00944863 -0.0181414
0.0020787 0.0117163 -0.041385
0.0020787 0.0126612 -0.0517785
0.00075589 0.0107714 -0.00831479
0.000377945 -0.00359048 0.00529123
0.00283459 -0.00529123 0.0253223
0.00548021 0.00793685 0.0317474
0.00434637 0.0234326 0.0171965
0.00188973 0.0245664 -0.00283459
0.00907068 0.00396842 0.0529123
0.0020787 0.00831479 -0.0168186
0.000566918 -0.00396842 -0.0243775
0.000566918 -0.00529123 -0.0211649
0.00226767 0.00585815 -0.0103935
0.0041574 0.0185193 -0.00302356
0.0041574 0.0196532 -0.0062361
0.00226767 0.00434637 -0.00699199
0.0151178 0.013984 0.0636838
0.00302356 0.00170075 -0.00075589
-0.0143619 -0.0319364 -0.00321253
-0.013984 -0.0330702 0.00925966
-0.00529123 -0.0117163 0.0103935
0.00529123 0.00850377 -0.000377945
-0.0228657 -0.0570697 0.020976
-0.0230547 -0.0582036 0.0332592
-0.0145509 -0.034771 0.0340151
-0.00566918 -0.0119053 0.0228657
0.0151178 0.0228657 0.00793685
-0.0119053 -0.0283459 0.00718096
0.00604712 0.0128501 -0.0096376
0.000566918 0.00925966 -0.0187083
0.00491329 0.0122832 -0.0171965
-0.00132281 -0.013984 0.000377945
0.00283459 -0.0168186 0.0364717
0.00548021 0.034204 0.0213539
0.00151178 0.0362827 -0.0141729
-0.000566918 -0.0128501 -0.0325033
-0.00075589 -0.0153068 -0.0270231
0.00529123 0.027401 0.00510226
0.00566918 0.0292908 -0.00075589
-0.000188973 0 -0.00680301
0.0041574 0.00491329 -0.00226767
0.00302356 0.00642507 -0.00850377
0.0194642 0.0062361 0.0823921
0.0109604 0.00793685 0.05518
0.0196532 0.034204 0.0631168
-0.0294797 -0.0748331 0.020598
-0.0300466 -0.0771008 0.0423299
-0.0147399 -0.0349599 0.0436527
0.00132281 0.00566918 0.0239995
-0.0173855 -0.0353379 -0.0215429
Vibration 4
-0.00831479 -0.00359048 -0.00566918
-0.00812582 -0.00226767 -0.00188973
-0.00982658 -0.00151178 -0.00548021
-0.0113384 -0.00245664 -0.013795
-0.0113384 -0.00359048 -0.00907068
-0.00982658 -0.00453534 -0.00925966
-0.00982658 -0.00396842 -0.00283459
-0.0100155 -0.00661404 -0.013984
-0.0100155 -0.00869274 -0.0194642
-0.00604712 -0.00491329 -0.00396842
0.000944863 -0.00831479 0.00132281
0.00472431 -0.0103935 0.00359048
0.00113384 -0.00888171 0.000566918
-0.00642507 -0.00510226 -0.00510226
-0.0100155 -0.00321253 -0.00736993
0.00604712 -0.0115273 0.00396842
-0.0100155 0.00359048 0.00453534
-0.0166296 0.0253223 0.0245664
-0.0179524 0.0370386 0.0394953
-0.0130391 0.0268341 0.034582
-0.0062361 0.00302356 0.0134171
-0.00510226 -0.00831479 -0.00151178
-0.0145509 0.0421409 0.0521564
0.00340151 -0.0109604 0.00113384
0.0670853 0.0736993 0.0100155
0.0177634 -0.0472432 0.0158737
0.0160627 -0.02759 -0.0062361
0.00132281 -0.0041574 -0.020787
-0.0128501 -0.00302356 -0.0151178
0.0302356 -0.0321253 -0.0126612
0.0294797 -0.0124722 -0.0338261
0.0143619 0.0126612 -0.048566
0.000188973 0.0170075 -0.0419519
-0.0219208 -0.00151178 -0.0166296
0.00359048 -0.0515895 0.0470542
0.0313695 0.0487549 0.0217318
-0.00699199 -0.00151178 0.00396842
-0.00982658 -0.000944863 0.00604712
0.00377945 -0.0096376 0.00359048
0.0103935 -0.0132281 0.00774788
-0.0096376 -0.00377945 -0.0075589
-0.0158737 -0.000566918 -0.0115273
-0.020787 0.0340151 0.0289128
-0.0230547 0.054991 0.0557469
-0.0020787 -0.00604712 0.00907068
-0.000377945 -0.0257003 -0.0168186
-0.0236216 0.048188 0.0572587
-0.0224877 0.0457314 0.0548021
0.00132281 0.0461093 0.0585815
0.00907068 -0.013984 0.00510226
0.000944863 -0.0147399 -0.0062361
-0.00113384 -0.00396842 0.00321253
0.041574 -0.0508336 -0.00113384
0.0406291 -0.0164406 -0.0385504
0.013795 0.0287238 -0.0650066
-0.0120942 0.0366607 -0.0536682
0.0332592 -0.0574477 0.00226767
Vibration 5
-0.013795 0.0124722 -0.0128501
-0.013984 0.00869274 -0.0130391
-0.0102045 0.00642507 -0.00529123
-0.00661404 0.00850377 -0.00245664
-0.00680301 0.0119053 -0.00359048
-0.0105825 0.013984 -0.00585815
-0.00321253 0.0122832 -0.0020787
-0.0103935 0.0166296 0.000944863
-0.0102045 0.0183303 0.0075589
-0.0120942 0.0113384 -0.0166296
-0.0188973 0.020787 -0.027401
-0.00377945 0.0126612 -0.0219208
0.0192752 -0.00510226 -0.00491329
0.020787 -0.0113384 0.00113384
0.00453534 -0.00226767 -0.00510226
0.0393063 -0.0151178 0.00359048
-0.00982658 -0.00377945 0.00226767
-0.0217318 -0.0249444 -0.00377945
-0.020598 -0.0436527 0.00188973
-0.00774788 -0.0410071 0.013795
0.00396842 -0.0173855 0.0213539
0.00283459 0.000944863 0.0154958
-0.0062361 -0.061983 0.0171965
0.076156 -0.0432747 0.034204
-0.00283459 0.0105825 0.0141729
0.000944863 0.00642507 0.000944863
0.000566918 0.00944863 -0.00245664
-0.00132281 0.00888171 -0.00359048
-0.00283459 0.0075589 -0.00245664
0.00226767 0.013606 -0.00453534
0.0020787 0.0162516 -0.00736993
0.000377945 0.0149288 -0.00831479
-0.00132281 0.0113384 -0.00642507
-0.0020787 0.0062361 -0.00302356
-0.00151178 0.00585815 0.00680301
0.00075589 0.0192752 0.00774788
-0.0166296 0.00699199 -0.0185193
-0.00188973 0.0149288 -0.000188973
-0.0349599 0.0338261 -0.0387394
-0.00793685 0.0187083 -0.0289128
0.0349599 -0.0230547 0.0111494
0.00585815 -0.00699199 -0.000377945
-0.0319364 -0.02759 -0.0132281
-0.0302356 -0.0610381 -0.00321253
0.0143619 -0.0141729 0.0313695
0.0120942 0.0177634 0.020409
-0.00472431 -0.138706 -0.00151178
0.00302356 -0.0459203 0.089384
-0.0162516 -0.0147399 -0.0359048
0.0931635 -0.0512116 0.0425188
0.05518 -0.0663294 0.0589595
0.107525 -0.0330702 0.0228657
0.00359048 0.0147399 -0.00396842
0.00340151 0.0196532 -0.00888171
0.000188973 0.0168186 -0.0103935
-0.00283459 0.0109604 -0.00718096
0.00340151 0.00434637 -0.00226767
Vibration 6
0.000377945 -0.000566918 0.00850377
0.000566918 0.000944863 0.0154958
0.000566918 0.000944863 0.0132281
0 0.000566918 0.0130391
-0.000566918 -0.000377945 0.00604712
-0.000188973 -0.000566918 0.000377945
-0.000944863 -0.000377945 0.00396842
0 0.00075589 -0.0187083
0 0.00226767 -0.0366607
0.00245664 -0.00151178 0.00718096
0.034204 -0.0166296 0.0302356
0.0374166 -0.0183303 0.0291018
0.00718096 -0.00472431 0.0041574
-0.0249444 0.0100155 -0.0187083
-0.0264562 0.0107714 -0.0166296
0.0134171 -0.00774788 0.00566918
0.000566918 -0.00132281 0.00604712
0.00699199 -0.0239995 -0.0143619
0.00812582 -0.034771 -0.0283459
0.00340151 -0.0224877 -0.0213539
-0.00321253 0.00321253 0.000944863
-0.00434637 0.0134171 0.0145509
0.00491329 -0.0377945 -0.0385504
-0.0194642 0.0075589 -0.0253223
0.0124722 0.0185193 -0.000377945
-0.00283459 -0.0232436 0.013606
-0.00434637 0.00359048 0.00642507
-0.00434637 0.0100155 0.00510226
-0.00188973 -0.000944863 0.00718096
-0.00604712 0.0217318 0.00226767
-0.00736993 0.0445975 -0.00283459
-0.00736993 0.048377 -0.00340151
-0.00585815 0.0311805 0.000566918
0.000377945 -0.00510226 0.00548021
-0.020976 -0.0332592 0.0302356
0.0107714 0.0151178 0.00245664
0.00113384 0.00132281 0.020976
-0.00075589 0.000188973 0.00453534
0.0565028 -0.0270231 0.048377
0.0627389 -0.0298577 0.0466762
-0.048188 0.020409 -0.0377945
-0.0506447 0.0211649 -0.0334482
0.0111494 -0.034204 -0.0198421
0.0132281 -0.0536682 -0.0449755
-0.00736993 0.0143619 0.00699199
-0.00888171 0.0315584 0.0304246
0.0141729 -0.0487549 -0.0449755
0.0124722 -0.0396842 -0.0360938
-0.0109604 -0.0377945 -0.0489439
-0.00699199 0.00170075 -0.0192752
-0.0166296 0.00642507 -0.0670853
-0.0561249 0.0243775 -0.0105825
-0.00661404 0.0181414 0.00283459
-0.00869274 0.0591484 -0.00604712
-0.00831479 0.0650066 -0.00718096
-0.00604712 0.0349599 -0.000377945
0.0158737 -0.0338261 0.0041574
Vibration 7
-0.0096376 0.00604712 0.00151178
-0.00907068 0.00566918 0.00850377
-0.00850377 0.00472431 0.00434637
-0.00680301 0.00548021 -0.00226767
-0.00642507 0.00642507 0.000188973
-0.00793685 0.00718096 -0.00434637
-0.00548021 0.0062361 0.00548021
-0.00774788 0.0107714 -0.0175745
-0.00774788 0.0147399 -0.0300466
-0.00566918 0.0041574 -0.000566918
0.034393 -0.0120942 0.0258892
0.0474321 -0.0190862 0.027779
0.0181414 -0.0096376 0.00283459
-0.0251334 0.00774788 -0.0258892
-0.0362827 0.013795 -0.0270231
0.0377945 -0.0192752 0.0100155
-0.00831479 0.00226767 0.0041574
-0.0105825 0.0239995 0.020976
-0.0102045 0.0202201 0.0177634
-0.00793685 -0.00585815 -0.00226767
-0.00604712 -0.0268341 -0.0181414
-0.00661404 -0.0222988 -0.0147399
-0.0075589 -0.0107714 -0.00718096
0.0126612 -0.0134171 -0.0160627
-0.0134171 -0.00529123 0.0292908
0.00548021 0.0398732 -0.0020787
0.00699199 0.0102045 -0.000188973
0.00188973 -0.00170075 -0.000944863
-0.00661404 0.00774788 0.000188973
0.0141729 -0.00548021 0.000377945
0.0158737 -0.0321253 -0.000188973
0.0107714 -0.0423299 -0.00151178
0.00396842 -0.0272121 -0.00188973
-0.0117163 0.0100155 0.000377945
0.0251334 0.0514005 -0.0156847
-0.0175745 -0.00736993 0.0300466
-0.00907068 0.00548021 0.0170075
-0.00566918 0.00661404 0.00642507
0.0563138 -0.0196532 0.0444086
0.0803134 -0.0319364 0.0487549
-0.0493218 0.0160627 -0.0466762
-0.0685971 0.0257003 -0.0476211
-0.0126612 0.0440306 0.0362827
-0.0119053 0.0374166 0.0309915
-0.0041574 -0.0466762 -0.0330702
-0.00548021 -0.0376055 -0.0260782
-0.00491329 -0.00699199 -0.00736993
-0.00548021 -0.0130391 -0.0134171
-0.0117163 -0.0156847 -0.00510226
0.0393063 -0.0258892 -0.00245664
0.00510226 -0.02759 -0.0606602
-0.020976 0.0160627 -0.00188973
0.0187083 0.00302356 0.00132281
0.0213539 -0.0445975 0.000188973
0.0122832 -0.062361 -0.0020787
0 -0.0359048 -0.00283459
-0.0143619 0.0510226 0.00718096
Vibration 8
0.000944863 0.000188973 0.00264562
0.00113384 0.0020787 -0.0062361
0.000566918 0.00245664 -0.00907068
-0.000188973 0.0020787 -0.0096376
-0.000188973 0.000566918 -0.0020787
0.000566918 0 0.00831479
-0.00151178 0.000566918 -0.0041574
0.000566918 0.00132281 0.0294797
0.00075589 0.00377945 0.0504557
0.00321253 -0.00075589 0.00548021
0.0168186 -0.00793685 0.0158737
0.0173855 -0.00831479 0.0151178
0.00283459 -0.00132281 0.00321253
-0.0096376 0.00472431 -0.00585815
-0.00869274 0.00434637 -0.0041574
0.00302356 -0.00113384 0.00245664
0.000566918 0.0020787 -0.00680301
-0.00264562 -0.0124722 -0.0153068
-0.00245664 -0.0119053 -0.0075589
0.000188973 0.00377945 0.00869274
0.00321253 0.0179524 0.0151178
0.00396842 0.0164406 0.00680301
-0.000944863 0.0160627 0.013984
-0.0200311 0.0111494 -0.0187083
0.000944863 0.00132281 -0.0111494
-0.00075589 -0.00075589 -0.0075589
-0.000377945 -0.00680301 -0.00585815
-0.000377945 -0.00151178 -0.00699199
-0.000566918 0.00170075 -0.00774788
-0.000188973 -0.0168186 -0.00302356
0 -0.0198421 -0.00188973
-0.000188973 -0.0113384 -0.00377945
-0.000377945 -0.0020787 -0.00604712
-0.00245664 0.0041574 -0.00699199
0.00340151 0.00151178 -0.0119053
-0.00359048 -0.00188973 -0.0096376
0.0020787 0.00264562 -0.00925966
-0.00283459 -0.00113384 -0.00340151
0.0268341 -0.0132281 0.0238105
0.0283459 -0.013606 0.0230547
-0.0196532 0.0096376 -0.013984
-0.0177634 0.00793685 -0.0102045
-0.00472431 -0.0245664 -0.0266451
-0.00642507 -0.0239995 -0.0130391
0.00699199 0.0298577 0.027779
0.00661404 0.0258892 0.0115273
0.027401 -0.272687 -0.0657625
-0.0328812 0.106392 0.309726
0.00113384 0.242074 -0.207114
-0.0177634 0.0103935 -0.0183303
-0.0141729 0.0154958 -0.0427078
-0.0436527 0.0158737 -0.00944863
0 -0.0222988 -0.00170075
0.000188973 -0.0283459 0.000377945
0 -0.0124722 -0.00302356
-0.000377945 0.00453534 -0.00736993
-0.00510226 0.0020787 -0.0041574
Vibration 9
-0.00585815 0.0107714 0.0096376
-0.00548021 0.0096376 -0.00113384
-0.00302356 0.00793685 -0.0075589
-0.00113384 0.00907068 -0.0141729
-0.00075589 0.0111494 -0.00491329
-0.00321253 0.0122832 0.0177634
0.00151178 0.0124722 -0.0156847
-0.00302356 0.0194642 0.0597153
-0.00264562 0.0289128 0.102612
-0.00264562 0.00944863 0.00869274
0.0198421 0.00510226 0.0185193
0.0289128 0.00075589 0.013984
0.0128501 0.000377945 -0.00113384
-0.0109604 0.00453534 -0.0119053
-0.0179524 0.00850377 -0.0062361
0.0243775 -0.00434637 -0.00377945
-0.00302356 0.0041574 -0.00529123
-0.00774788 -0.00283459 -0.00604712
-0.00793685 -0.00774788 -0.00188973
-0.00245664 -0.00548021 0.00321253
0.00283459 0.00113384 0.00453534
0.00226767 0.00585815 0.000377945
-0.00188973 -0.0170075 0.0109604
0.00491329 -0.00359048 -0.0255113
-0.0124722 -0.0200311 -0.0115273
-0.00340151 -0.0247554 -0.0117163
-0.00340151 -0.0185193 -0.00888171
-0.000188973 0.00132281 -0.0109604
0.00453534 0.00718096 -0.0147399
-0.00680301 -0.034582 -0.00245664
-0.00718096 -0.0287238 0.000944863
-0.00434637 -0.00566918 -0.00170075
-0.000944863 0.00907068 -0.00774788
0.00831479 0.00812582 -0.0134171
-0.00812582 -0.027401 -0.00736993
0.00699199 0.0183303 -0.0394953
-0.00642507 0.00888171 -0.00245664
0.00283459 0.0130391 -0.0181414
0.0311805 0.00566918 0.0292908
0.0476211 -0.00245664 0.0221098
-0.0236216 0.00434637 -0.0238105
-0.0353379 0.0100155 -0.0128501
-0.0119053 -0.0041574 -0.0103935
-0.0109604 -0.0128501 -0.00321253
0.00604712 0.00264562 0.00812582
0.00642507 0.0111494 0.000944863
-0.0272121 0.15458 0.061983
0.0226767 -0.0721875 -0.163272
0.000188973 -0.153824 0.147021
0.0187083 -0.00774788 -0.0251334
0.00302356 -0.00888171 -0.0500777
-0.0187083 0.00585815 -0.0160627
-0.00888171 -0.0517785 -0.000188973
-0.00982658 -0.0417629 0.00604712
-0.00491329 0.000188973 0.000944863
0.00132281 0.0260782 -0.0096376
0.000944863 -0.027779 -0.0158737
Vibration 10
-0.00434637 -0.00680301 -0.0156847
-0.0041574 -0.00774788 -0.0243775
-0.0020787 -0.00888171 -0.0160627
-0.000944863 -0.0075589 -0.000566918
-0.00075589 -0.00661404 0.00264562
-0.00245664 -0.00566918 -0.00491329
0 -0.00718096 0.0100155
-0.00226767 -0.00226767 -0.00226767
-0.0020787 0.00075589 -0.00075589
-0.00548021 -0.0062361 -0.0126612
0.00170075 -0.0164406 -0.000944863
0.00321253 -0.0173855 0.00736993
-0.00359048 -0.00812582 0.00340151
-0.0126612 0.00264562 -0.00925966
-0.0130391 0.00283459 -0.0170075
-0.000377945 -0.0107714 0.013606
-0.00226767 -0.00925966 -0.0153068
-0.00151178 -0.0523454 -0.0457314
-0.00340151 -0.0394953 -0.0298577
-0.00453534 0.0181414 0.0171965
-0.00340151 0.0534792 0.0410071
-0.0020787 0.0379835 0.0238105
-0.00680301 0.0385504 0.0455424
-0.00680301 -0.00170075 0.0100155
0.00736993 0.00869274 0.00699199
0.00831479 0.0258892 -0.000188973
0.00907068 0.0111494 -0.00132281
0.00548021 -0.00434637 -0.000377945
0.000188973 -0.00793685 0.00302356
0.0128501 0.0170075 -0.00491329
0.0134171 0.00850377 -0.00736993
0.0100155 -0.00510226 -0.00680301
0.00604712 -0.0107714 -0.00302356
-0.00434637 -0.00718096 0.0020787
0.0190862 0.0317474 -0.0111494
-0.00642507 -0.0147399 0.0236216
-0.00529123 -0.00831479 -0.0360938
-0.000944863 -0.00699199 0.0141729
0.00661404 -0.0238105 0.00132281
0.00982658 -0.0253223 0.0166296
-0.0187083 0.0105825 -0.0128501
-0.0192752 0.0102045 -0.0255113
-0.000566918 -0.0946753 -0.0799354
-0.00283459 -0.0723765 -0.0531013
-0.00453534 0.0939194 0.0731324
-0.000944863 0.0644397 0.0410071
-0.034204 0.141729 0.0814472
-0.00566918 0.0134171 -0.0459203
0.0185193 -0.0302356 0.129635
-0.00132281 -0.00699199 0.020598
-0.00793685 -0.00491329 -0.00604712
-0.0151178 0.0126612 0.013795
0.0151178 0.0285349 -0.00604712
0.0162516 0.0126612 -0.0102045
0.0105825 -0.0109604 -0.00925966
0.00434637 -0.0188973 -0.00264562
-0.0020787 0.0332592 0.00982658
Vibration 11
-0.0170075 -0.000944863 -0.00132281
-0.0162516 -0.0132281 0.00075589
-0.00585815 -0.0198421 0.00661404
0.00340151 -0.0143619 0.0175745
0.0041574 -0.00113384 0.00907068
-0.00642507 0.00548021 0.00340151
0.0173855 0.00151178 0.00510226
-0.00566918 0.0222988 0.00113384
-0.00491329 0.0402512 0.00075589
-0.0249444 0.00340151 -0.0096376
-0.013795 0 -0.00359048
-0.00661404 -0.00377945 -0.00226767
-0.0109604 -0.00510226 -0.00680301
-0.0304246 0.00226767 -0.0190862
-0.0372276 0.0062361 -0.020598
0.00566918 -0.0134171 0.000944863
-0.00585815 -0.0194642 -0.00321253
0.0062361 -0.00302356 -0.00113384
0.00491329 0.0198421 -0.00434637
-0.00907068 0.0253223 -0.0096376
-0.020976 0.00245664 -0.0171965
-0.0190862 -0.0198421 -0.013795
-0.0117163 0.0604712 -0.00812582
0.0304246 -0.0338261 0.020787
-0.0145509 -0.0493218 0.00188973
0.0103935 -0.00888171 0.00510226
0.0096376 0.00245664 0.00774788
0.0145509 -0.0109604 0.013795
0.0192752 -0.0177634 0.0134171
0.00396842 0.0241885 0.00472431
0.00359048 0.0287238 0.00888171
0.00907068 0.00907068 0.0162516
0.0145509 -0.0105825 0.0187083
0.0319364 -0.0260782 0.0122832
0.00132281 -0.0154958 0.00472431
0.041574 0.0255113 -0.0478101
-0.0241885 -0.0177634 -0.00321253
0.0268341 0.0111494 -0.00548021
-0.00888171 -0.000377945 0.000944863
0.00434637 -0.00699199 0.00359048
-0.0391173 0.00453534 -0.0268341
-0.0508336 0.0103935 -0.0285349
0.0170075 -0.00585815 0.0041574
0.0145509 0.034582 -0.000944863
-0.0313695 0.00359048 -0.0236216
-0.0289128 -0.034771 -0.0171965
-0.00264562 0.0283459 -0.0196532
-0.0396842 0.0818251 0.034771
0.00510226 0.103935 -0.0400622
0.0561249 -0.0472432 0.0374166
0.00831479 -0.0606602 0.0239995
0.0462983 -0.00925966 0.0160627
-0.000377945 0.0376055 -0.000944863
-0.000944863 0.0470542 0.0062361
0.00888171 0.0102045 0.0200311
0.0185193 -0.0251334 0.0238105
0.0187083 -0.0130391 0.00396842
Vibration 12
-0.00377945 0.00321253 0.0377945
-0.00396842 0.00340151 0.055369
-0.00491329 0.00396842 0.034582
-0.00718096 0.00264562 0.0102045
-0.0075589 0.00321253 0.00510226
-0.00585815 0.00188973 0.0113384
-0.00736993 0.00453534 -0.00774788
-0.00585815 -0.00396842 -0.0198421
-0.0062361 -0.0102045 -0.0508336
-0.00132281 0.00170075 0.0315584
-0.00566918 0.0188973 0.013984
-0.00434637 0.0187083 -0.00264562
0.00283459 0.000944863 -0.00075589
0.0096376 -0.0173855 0.0177634
0.00661404 -0.0153068 0.0334482
0.00264562 0.00321253 -0.0211649
-0.00510226 0.00604712 0.0257003
0.00793685 -0.0181414 -0.00075589
0.00869274 -0.0183303 -0.0158737
-0.00359048 0.00736993 -0.00321253
-0.0164406 0.0328812 0.0236216
-0.0164406 0.0304246 0.0370386
-0.00321253 0.00680301 -0.0194642
0.0075589 -0.0153068 -0.0230547
-0.0239995 -0.0362827 0.0270231
0.00566918 0.00831479 -0.00907068
0.00661404 -0.00831479 -0.00736993
0.00132281 0.00529123 -0.013606
-0.00434637 0.00151178 -0.00982658
0.0132281 -0.0355268 -0.00321253
0.013795 -0.0425188 -0.0075589
0.0075589 -0.0168186 -0.0166296
0.00113384 0.0075589 -0.0198421
-0.00604712 -0.00925966 -0.0147399
0.0173855 0.0145509 -0.020409
0.0196532 0.0493218 -0.0355268
-0.0041574 0.00321253 0.0776677
-0.00321253 0.00604712 -0.0192752
-0.0103935 0.0330702 0.013795
-0.00907068 0.0323143 -0.0168186
0.0162516 -0.0325033 0.0198421
0.0100155 -0.027401 0.0455424
0.0181414 -0.0374166 -0.0096376
0.0188973 -0.0387394 -0.0376055
-0.0264562 0.0532903 0.0330702
-0.0257003 0.0462983 0.0544241
0.00699199 0.00699199 -0.0238105
-0.00453534 0.00604712 -0.0239995
-0.0117163 0.00585815 -0.0241885
0.00340151 -0.00680301 -0.0438416
0.00831479 -0.0120942 -0.00188973
0.013984 -0.0391173 -0.0266451
0.0181414 -0.0514005 0.00340151
0.0190862 -0.0665184 -0.00359048
0.00774788 -0.0168186 -0.020976
-0.00359048 0.0270231 -0.0264562
-0.00604712 0.0154958 -0.00188973
Vibration 13
0.0113384 -0.013795 -0.0219208
0.0107714 -0.00793685 -0.0323143
0.00510226 -0.0041574 -0.0239995
0.000944863 -0.00699199 -0.0151178
0 -0.0117163 -0.0156847
0.00661404 -0.0160627 -0.013606
-0.00453534 -0.0128501 -0.0117163
0.00642507 -0.0232436 0.00510226
0.00604712 -0.0279679 0.0243775
0.0162516 -0.0168186 -0.0107714
0.0096376 -0.0236216 -0.00604712
0.00661404 -0.0224877 0.00434637
0.00925966 -0.013606 0.00907068
0.0217318 -0.00982658 0.00944863
0.0255113 -0.0122832 -0.000188973
-0.00113384 -0.00982658 0.0160627
0.00510226 -0.00245664 -0.0166296
-0.00340151 0.00396842 -0.00548021
-0.00377945 0.00226767 0.00510226
0.00472431 -0.00642507 0.00396842
0.0134171 -0.0132281 -0.00718096
0.0132281 -0.0105825 -0.0170075
0.00453534 -0.00831479 0.0154958
-0.0364717 0.0230547 -0.0105825
-0.0351489 -0.020598 0.120942
-0.020598 0.0222988 -0.0164406
-0.020787 0.0156847 -0.0102045
-0.0128501 -0.00718096 -0.000188973
-0.0041574 -0.0062361 -0.00453534
-0.0296687 0.034582 -0.0105825
-0.0294797 0.0239995 0.00113384
-0.020598 -0.00736993 0.0132281
-0.0119053 -0.0219208 0.0126612
-0.00075589 -0.00113384 -0.00151178
-0.0134171 0.0298577 -0.00226767
0.0663294 0.137005 0.0117163
0.0154958 -0.00510226 -0.0423299
0 -0.00680301 -0.0154958
0.00566918 -0.0296687 -0.0117163
0.000944863 -0.0272121 0.00736993
0.0285349 -0.00548021 0.0171965
0.0351489 -0.0096376 0
-0.0103935 0.0103935 -0.00510226
-0.0107714 0.00774788 0.013795
0.0202201 -0.0200311 -0.00793685
0.0200311 -0.0147399 -0.0245664
-0.00340151 -0.00793685 0.0188973
0.00774788 -0.00907068 0.0173855
0.00925966 -0.00944863 0.0198421
-0.0563138 0.0306136 -0.0154958
-0.0143619 0.0474321 -0.034582
-0.0646286 0.0145509 -0.000377945
-0.0372276 0.0574477 -0.020598
-0.0362827 0.0394953 0.000377945
-0.0200311 -0.0188973 0.0226767
-0.00434637 -0.0436527 0.0215429
-0.02759 0.0211649 -0.0325033
Vibration 14
-0.0020787 -0.000377945 0.0253223
-0.00170075 -0.0096376 0.0353379
0.00604712 -0.0143619 0.0162516
0.0120942 -0.0107714 -0.00510226
0.0124722 -0.000566918 -0.0166296
0.00472431 0.00377945 0.00604712
0.0211649 0.00453534 -0.0527234
0.00529123 0.0132281 0.00793685
0.00566918 0.0221098 0.0120942
-0.00850377 0.00302356 0.0194642
-0.00321253 0.0102045 0.013606
-0.0041574 0.0115273 -0.00075589
-0.00982658 0.00377945 -0.00793685
-0.0179524 -0.00245664 -0.00491329
-0.0175745 -0.0020787 0.00850377
-0.00680301 0.0041574 -0.0222988
0.00642507 -0.0151178 0.00925966
0.0179524 -0.0132281 0.00188973
0.0177634 -0.00170075 -0.00604712
0.00604712 0.00793685 -0.00642507
-0.00491329 0.00226767 -0.0020787
-0.0041574 -0.00982658 0.00548021
0.00491329 0.0262672 -0.0119053
0.0249444 -0.027779 0.00075589
0.0364717 0.061983 0.0438416
-0.0215429 -0.00453534 -0.0451645
-0.0215429 -0.00661404 -0.0281569
-0.00340151 -0.00170075 -0.0173855
0.0200311 -0.00944863 -0.0257003
-0.0421409 -0.00736993 -0.0168186
-0.0432747 -0.00283459 0.00566918
-0.0245664 0.00321253 0.0164406
-0.00434637 0.00359048 0.00529123
0.0493218 -0.0281569 -0.0272121
-0.0128501 0.00548021 -0.0253223
-0.00661404 -0.00925966 0.0941084
-0.00812582 -0.0134171 0.0540462
0.0192752 0.00491329 -0.0442196
0.00264562 0.0153068 0.020598
0 0.0173855 -0.00529123
-0.0251334 -0.00680301 -0.0128501
-0.0245664 -0.00642507 0.0107714
0.02759 -0.0196532 0.00340151
0.0264562 0.000188973 -0.0111494
-0.0143619 0.00812582 -0.0041574
-0.0122832 -0.0132281 0.00869274
0.0113384 0.0311805 -0.0134171
-0.00869274 0.0308025 -0.0128501
0.0111494 0.0323143 -0.013795
0.0377945 -0.0306136 -0.00188973
0.00812582 -0.0453534 0.0291018
0.0519675 -0.0296687 -0.00944863
-0.0574477 -0.0113384 -0.0257003
-0.0587705 -0.00396842 0.0143619
-0.0253223 0.00736993 0.0338261
0.0107714 0.00718096 0.0143619
-0.0298577 -0.00774788 -0.0721875
Vibration 15
-0.0185193 0.0111494 0.00188973
-0.0185193 0 0.000944863
-0.0096376 -0.00585815 -0.00321253
-0.00151178 -0.00132281 -0.00226767
-0.000944863 0.0096376 -0.00585815
-0.0107714 0.0151178 -0.00359048
0.0119053 0.0122832 -0.0117163
-0.0103935 0.0253223 -0.00982658
-0.00982658 0.0349599 -0.0173855
-0.0147399 0.00888171 0.00585815
-0.027401 0.0243775 -0.0126612
-0.0020787 0.0109604 -0.00226767
0.0340151 -0.0156847 0.0243775
0.0459203 -0.0302356 0.0410071
0.020976 -0.0160627 0.0315584
0.0650066 -0.0319364 0.0387394
-0.00982658 -0.0132281 -0.00850377
-0.00907068 -0.0120942 -0.00831479
-0.00982658 -0.00491329 -0.00510226
-0.0120942 0.000566918 -0.0020787
-0.0122832 -0.00812582 -0.00812582
-0.0115273 -0.0149288 -0.0111494
-0.013795 0.0190862 0.00907068
-0.0459203 0.020976 -0.0659514
0.0120942 0.00396842 -0.0109604
0.00302356 -0.00585815 -0.00226767
0.00245664 0.00151178 -0.000944863
0.0062361 -0.00566918 0.00283459
0.0103935 -0.00283459 -0.000377945