[Molden Format]
[FREQ]
-803.6
7.7
13.9
25.7
32.0
40.2
47.3
51.4
69.5
74.8
79.7
90.5
94.7
126.1
130.3
137.3
142.3
154.6
164.6
174.6
180.2
202.7
219.8
236.1
249.2
252.2
276.6
284.2
298.0
302.5
310.6
328.6
336.3
358.1
361.4
365.1
366.3
379.0
393.7
411.4
428.6
465.9
473.7
495.4
505.2
510.3
524.4
533.9
546.2
548.4
553.9
586.5
603.1
610.4
613.8
627.5
646.4
670.9
679.6
683.4
694.6
725.9
746.6
762.5
779.1
788.0
829.2
836.8
848.2
855.5
883.2
884.1
902.5
903.4
938.8
942.6
947.8
959.5
1001.7
1007.7
1008.7
1012.2
1015.0
1017.3
1023.8
1032.3
1035.0
1049.6
1075.9
1080.5
1083.0
1092.5
1127.8
1129.0
1165.5
1177.4
1179.7
1181.5
1187.6
1196.2
1218.4
1245.0
1261.7
1265.2
1268.8
1274.8
1276.9
1282.2
1286.6
1295.8
1301.1
1303.8
1317.6
1324.8
1335.3
1342.5
1350.7
1351.3
1353.9
1364.8
1379.0
1392.9
1422.3
1424.8
1475.4
1516.7
1525.0
1526.1
1539.4
1544.1
1586.6
1588.0
1629.9
1697.0
1699.4
1706.4
1708.9
1715.3
1721.8
1747.8
1894.3
1898.6
1955.2
2447.7
2651.2
2654.2
2666.4
2672.7
2741.9
2742.7
2744.9
2745.6
2746.3
2748.3
2748.9
2751.9
2762.1
2762.4
2763.5
2766.0
2766.4
2769.4
2771.4
2779.4
2833.6
       
[FR-COORD]
C -2.72914 -2.7265 0.423299
C -0.0563138 -2.7265 0.423299
C 1.29635 -0.500399 0.423299
N 0.109037 1.81319 0.400055
C -2.66338 1.9502 0.0215429
C -3.98864 -0.466951 0.242641
N -3.68704 3.98487 -0.516084
C -6.65694 -0.334482 0.198232
N -8.8443 -0.236594 0.167997
C -4.05327 -5.1529 0.604523
C -3.50771 -7.06871 -1.14366
C -4.74189 -9.37153 -1.00741
C -6.53108 -9.75288 0.920297
C -7.08458 -7.87468 2.68606
C -5.8351 -5.56657 2.50521
O -7.58668 -12.088 0.843763
C 4.07406 -0.786693 0.359615
C 5.56713 -0.506258 2.51182
C 8.16475 -0.899888 2.35857
C 9.27251 -1.61704 0.0721875
C 7.75676 -1.97306 -2.06282
C 5.165 -1.56923 -1.91921
C 12.0548 -2.02616 -0.0682191
C -9.51401 -12.6288 2.6356
C -0.302734 6.41146 1.54598
C 1.52331 4.16099 0.873242
C 3.02715 5.23019 -1.32697
C 1.8833 7.44495 -2.27617
C -0.297443 8.21237 -0.732269
C 5.29766 4.41969 -2.31567
C 6.32113 5.7083 -4.3938
C 5.10963 7.80325 -5.41747
C 2.87579 8.71693 -4.33125
O -1.80941 9.84887 -1.10454
O 3.17172 3.78588 2.88958
O -1.19828 6.72724 3.58557
H 0.940706 -4.52495 0.469219
H 2.24292 3.77227 4.51871
H -2.11668 -6.73064 -2.62918
H -4.36338 -10.8761 -2.3529
H -8.46673 -8.17155 4.17006
H -6.25764 -4.07047 3.86373
H 4.7126 0.0102045 4.31481
H 9.33411 -0.650255 4.03154
H 8.60279 -2.574 -3.83709
H 3.98014 -1.85042 -3.58273
H 13.1088 -0.486415 0.84792
H 12.7532 -2.16128 -2.01785
H 12.5967 -3.79041 0.893462
H -10.0596 -14.5643 2.11819
H -11.1178 -11.3412 2.40883
H -8.76417 -12.5797 4.5618
H 6.32302 2.83856 -1.48306
H 8.09804 5.0501 -5.20242
H 5.91295 8.76209 -7.05151
H 1.94869 10.4035 -5.0707
H -4.2961 5.68089 -0.736804

[FR-NORM-COORD]
Vibration 1
-0.00566918 0.0102045 -0.00113384
0.00510226 0.00396842 0.000566918
0.00944863 -0.00982658 0.00472431
0.0156847 0.0041574 0.00170075
0.0561249 0.0266451 -0.00604712
0.00944863 0.0132281 -0.00245664
-0.241885 -0.105825 -0.0198421
0.00151178 0.00736993 -0.00075589
0.00132281 -0.00264562 0.000566918
0 0.00359048 -0.000188973
-0.000188973 0.00170075 0.000566918
0.000377945 0.000944863 0.000377945
0.000188973 0.000377945 0
0.000377945 0.000188973 -0.000188973
0.000377945 0.000566918 -0.000188973
0 0 0
0.00359048 -0.00226767 0
0.00151178 -0.000377945 0.000566918
0.00113384 0.000188973 0.000188973
0.000377945 0.000188973 -0.000188973
0.00113384 0 -0.000566918
0.00132281 -0.000377945 -0.00075589
0.000188973 0 0
0 0 -0.000188973
0.0285349 0.0107714 0.0164406
0.00869274 -0.0041574 0.00434637
0.0020787 0.000188973 0.00113384
0.000566918 0.00075589 0.00151178
0.0194642 0.0134171 0.000944863
0 -0.000377945 0.000566918
-0.000188973 0.000188973 -0.000377945
-0.000188973 0 -0.000188973
0 0.000377945 -0.000566918
0.00264562 0.000377945 0.00245664
0.00434637 0.0041574 0.00226767
0.00245664 0.00340151 0.00132281
-0.00491329 -0.0020787 -0.00529123
0.00510226 -0.0292908 0.00321253
-0.00075589 0.00113384 0.000188973
0.000566918 0.00132281 0.000377945
0.000188973 0.000188973 -0.000377945
-0.00170075 0.00113384 -0.000944863
0.000566918 -0.00321253 0.000566918
0.00113384 -0.000377945 0.000377945
0.00113384 -0.000944863 -0.000188973
-0.000188973 -0.00188973 0.000566918
0.000377945 -0.000377945 0.000377945
0.000377945 -0.000377945 0.000188973
-0.000188973 -0.000188973 0
-0.000188973 0.000188973 0
0.000188973 0.000188973 -0.000188973
0 0.000188973 -0.000188973
0 -0.00302356 0.000377945
0.00075589 -0.00113384 -0.000566918
0 0.000566918 -0.00113384
0.000944863 0.0020787 -0.00113384
1.24042 0.438227 -0.0665184
Vibration 2
-0.00680301 -0.000944863 -0.0062361
-0.00661404 -0.00075589 -0.0141729
-0.00736993 -0.000377945 -0.013606
-0.00793685 -0.000377945 -0.00907068
-0.00774788 -0.00170075 -0.0122832
-0.00736993 -0.00132281 -0.00396842
-0.0062361 -0.00396842 -0.0230547
-0.0075589 -0.000944863 0.00548021
-0.0075589 -0.000944863 0.0134171
-0.00548021 -0.00132281 -0.000188973
-0.0109604 -0.0020787 -0.000944863
-0.00850377 -0.00302356 0.00585815
0 -0.00321253 0.013606
0.00491329 -0.0020787 0.013795
0.0020787 -0.00113384 0.00699199
0.00264562 -0.00472431 0.020409
-0.0075589 0.00226767 -0.0198421
-0.00340151 -0.00245664 -0.0221098
-0.00321253 0.0020787 -0.0294797
-0.00699199 0.0120942 -0.034582
-0.0111494 0.0173855 -0.0325033
-0.0115273 0.0130391 -0.0253223
-0.00661404 0.0181414 -0.0423299
0.0128501 -0.00642507 0.0309915
-0.0164406 -0.00151178 -0.0119053
-0.0103935 -0.00264562 0.00793685
0.0154958 0.000188973 0.0266451
0.020409 -0.00472431 0.00907068
0.000188973 -0.00850377 -0.0175745
0.0323143 0.00831479 0.0587705
0.0544241 0.00831479 0.0697309
0.0595264 0.00151178 0.0498888
0.0425188 -0.00434637 0.0200311
-0.00283459 -0.0162516 -0.0391173
-0.0330702 -0.00831479 0.0257003
-0.0313695 0.00434637 -0.0194642
-0.00604712 -0.000566918 -0.0196532
-0.0508336 -0.0103935 0.0153068
-0.0175745 -0.0020787 -0.00699199
-0.0126612 -0.00377945 0.00548021
0.0107714 -0.00188973 0.0194642
0.00604712 -0.000188973 0.00718096
-0.000377945 -0.00831479 -0.0188973
0.000188973 -0.0020787 -0.0311805
-0.0141729 0.0257003 -0.0368497
-0.0145509 0.0183303 -0.0239995
-0.0075589 0.0179524 -0.0410071
-0.0109604 0.0243775 -0.0444086
-0.000566918 0.0168186 -0.048188
0.0156847 -0.00888171 0.0374166
0.00831479 -0.0111494 0.0360938
0.0219208 -0.000566918 0.0272121
0.0285349 0.0145509 0.075589
0.0672742 0.0130391 0.0942973
0.0769118 0.00075589 0.0580146
0.0464873 -0.00869274 0.00548021
-0.00661404 -0.00491329 -0.0296687
Vibration 3
-0.00359048 0.0062361 0.0190862
-0.00377945 0.00907068 0.0134171
-0.00548021 0.0100155 0.0151178
-0.00585815 0.0100155 0.0234326
-0.00888171 0.00944863 0.0470542
-0.00566918 0.00642507 0.0366607
-0.0190862 0.0107714 0.0699199
-0.00604712 0.0041574 0.0461093
-0.0062361 0.00170075 0.0540462
0 0.00321253 0.00396842
0.00472431 0.0154958 -0.00812582
0.00869274 0.0124722 -0.0243775
0.0075589 -0.00321253 -0.0285349
0.00302356 -0.0158737 -0.0166296
-0.00075589 -0.0124722 -0.000188973
0.0115273 -0.00453534 -0.0453534
-0.00585815 0.00925966 0.00812582
-0.000188973 0.013984 0.00359048
-0.00075589 0.0119053 -0.00188973
-0.00699199 0.00510226 -0.00283459
-0.0126612 0.000377945 0.00188973
-0.0119053 0.00264562 0.00718096
-0.00774788 0.00283459 -0.00907068
0.00907068 -0.0188973 -0.0523454
0.00888171 0.020787 -0.00982658
0.00075589 0.00944863 0.00925966
0.00434637 -0.00982658 0.00170075
0.000566918 -0.0230547 -0.0251334
-0.00132281 -0.00982658 -0.034582
0.0109604 -0.0115273 0.0187083
0.0122832 -0.0317474 0.00680301
0.0075589 -0.048188 -0.020787
0.00188973 -0.0430858 -0.0368497
-0.00793685 -0.020409 -0.0546131
-0.00113384 0.0164406 0.0119053
0.0255113 0.0525344 -0.00718096
-0.0020787 0.00982658 0.00718096
-0.00075589 0.0357158 0.0122832
0.00529123 0.02759 -0.00491329
0.0126612 0.0219208 -0.0340151
0.00226767 -0.0279679 -0.0196532
-0.00434637 -0.0222988 0.0096376
0.00453534 0.0198421 0.00434637
0.00340151 0.0154958 -0.00548021
-0.0175745 -0.00491329 0.00132281
-0.0162516 -0.000377945 0.0107714
-0.00434637 0.000944863 -0.0096376
-0.0119053 0.00434637 -0.0105825
-0.00736993 0.00132281 -0.0119053
0.0105825 -0.0153068 -0.0678412
0.00869274 -0.0179524 -0.0444086
0.00661404 -0.0332592 -0.0510226
0.0156847 0.00302356 0.041196
0.0173855 -0.034771 0.0200311
0.00888171 -0.0646286 -0.0298577
-0.000944863 -0.0538572 -0.0580146
-0.0196532 0.0143619 0.0924076
Vibration 4
-0.0162516 0.0145509 -0.0192752
-0.0162516 0.0102045 -0.0215429
-0.0122832 0.00774788 -0.0117163
-0.00812582 0.00982658 -0.00529123
-0.00850377 0.0156847 -0.0020787
-0.0128501 0.0171965 -0.00831479
-0.00510226 0.0192752 0.00491329
-0.0126612 0.0215429 -0.000566918
-0.0126612 0.0247554 0.0062361
-0.0141729 0.0132281 -0.0221098
-0.0190862 0.0198421 -0.0311805
-0.00113384 0.0109604 -0.0217318
0.0224877 -0.00491329 -0.00283459
0.020598 -0.00831479 -0.000188973
0.00170075 0.00132281 -0.0102045
0.0464873 -0.0162516 0.0103935
-0.0130391 -0.00075589 -0.0041574
-0.0202201 -0.0122832 0.0020787
-0.0221098 -0.0298577 0.0130391
-0.0173855 -0.0359048 0.0173855
-0.0103935 -0.020598 0.0096376
-0.00812582 -0.00340151 -0.00113384
-0.020409 -0.0604712 0.0296687
0.0935414 -0.0464873 0.0517785
0.0041574 0.00982658 0.00075589
-0.00245664 0.00585815 -0.00264562
-0.000944863 0.00377945 -0.00245664
0.00491329 0.00812582 0.000566918
0.00774788 0.0124722 0.00283459
-0.0041574 -0.00226767 -0.00510226
-0.00170075 -0.00283459 -0.00434637
0.00396842 0.0020787 -0.000944863
0.00736993 0.00736993 0.00132281
0.0124722 0.0175745 0.00585815
-0.00226767 -0.000566918 -0.00396842
0.00642507 0.0105825 0.00170075
-0.0194642 0.00831479 -0.0287238
-0.00132281 0.00075589 -0.00340151
-0.0353379 0.0313695 -0.0436527
-0.00302356 0.0149288 -0.0268341
0.0340151 -0.0181414 0.0102045
0.000944863 -0.00151178 -0.00718096
-0.0243775 -0.00888171 -0.00075589
-0.027779 -0.0400622 0.0183303
-0.00661404 -0.0234326 0.0122832
-0.00302356 0.00699199 -0.00661404
-0.0105825 -0.0778567 0.0474321
-0.0111494 -0.0523454 0.0325033
-0.0427078 -0.0731324 0.0190862
0.121698 -0.0597153 0.0714316
0.0638727 -0.0789905 0.0771008
0.130013 -0.0230547 0.0370386
-0.00850377 -0.00642507 -0.0075589
-0.0041574 -0.00718096 -0.0062361
0.00585815 0.00151178 -0.000377945
0.0119053 0.0109604 0.00377945
-0.0020787 0.0213539 0.0128501
Vibration 5
0.00736993 -0.0062361 -0.0062361
0.00718096 -0.0062361 -0.0255113
0.0062361 -0.00510226 -0.0181414
0.00453534 -0.00604712 -0.0145509
0.00396842 -0.00831479 -0.0145509
0.00510226 -0.00604712 0.0119053
0.00661404 -0.013795 -0.0396842
0.00453534 -0.00491329 0.0565028
0.00396842 -0.00453534 0.096376
0.00529123 -0.00510226 -0.00283459
-0.0383614 0.0128501 -0.0357158
-0.0500777 0.0187083 -0.0400622
-0.0160627 0.00661404 -0.0109604
0.0313695 -0.0126612 0.0243775
0.041385 -0.0177634 0.0281569
-0.0353379 0.0156847 -0.0219208
0.00680301 -0.00188973 -0.00585815
-0.00718096 -0.00132281 0.00396842
-0.00566918 0.00434637 0.0202201
0.0103935 0.00888171 0.0266451
0.0243775 0.00718096 0.0168186
0.0224877 0.00170075 0.00075589
0.0122832 0.0156847 0.0442196
-0.00661404 0.00699199 0.00642507
-0.00718096 -0.00888171 -0.0119053
-0.000377945 -0.00377945 -0.0119053
-0.000188973 0.00132281 -0.00925966
-0.00113384 0.00245664 -0.00548021
-0.00396842 -0.00302356 -0.00699199
0.000566918 0.00453534 -0.00982658
0.00132281 0.0096376 -0.0062361
0.000944863 0.0115273 -0.00226767
-0.000377945 0.00774788 -0.00188973
-0.00472431 -0.00340151 -0.00566918
-0.00170075 -0.000566918 -0.0103935
-0.0166296 -0.0177634 -0.0147399
0.00736993 -0.0062361 -0.0394953
-0.00359048 -0.00585815 -0.0115273
-0.0642507 0.0224877 -0.0576366
-0.0854156 0.0328812 -0.0657625
0.0593374 -0.0228657 0.048377
0.0769118 -0.0315584 0.0540462
-0.0200311 -0.00548021 -0.00075589
-0.0166296 0.00548021 0.027779
0.0368497 0.0100155 0.0217318
0.0336371 0.000188973 -0.00680301
0.00264562 0.0230547 0.0428968
0.0238105 0.00850377 0.0487549
0.0117163 0.0217318 0.0555579
-0.0319364 0.0185193 -0.0100155
-0.000188973 0.0232436 0.0536682
0.0296687 -0.0255113 -0.00699199
0.000566918 0.00283459 -0.0130391
0.0020787 0.0122832 -0.00680301
0.00170075 0.0158737 0.000566918
-0.000944863 0.00869274 0.00113384
0.00434637 -0.0164406 -0.0519675
Vibration 6
0.000944863 0.00396842 0.0154958
0.00132281 0.00642507 0.00604712
0.000566918 0.00680301 -0.0020787
-0.00113384 0.00548021 -0.00812582
-0.00075589 0.000944863 -0.013984
-0.000566918 0.00359048 0.0166296
0.00491329 -0.00585815 -0.0493218
-0.000566918 0.0075589 0.0447865
-0.00075589 0.0120942 0.0712427
0.00736993 0.00075589 0.0171965
0.041196 -0.0075589 0.0360938
0.048377 -0.0117163 0.0292908
0.0187083 -0.00736993 0.00264562
-0.0134171 -0.00075589 -0.0145509
-0.0181414 0.00264562 -0.00642507
0.0264562 -0.0105825 -0.00340151
0.000188973 0.00453534 -0.00434637
0.00245664 0.00321253 -0.00604712
-0.000377945 -0.0164406 -0.00472431
-0.00566918 -0.0332592 -0.00188973
-0.00736993 -0.0228657 -0.00245664
-0.00434637 -0.0041574 -0.00359048
-0.0102045 -0.0648176 0.00170075
-0.0211649 0.00245664 -0.0506447
-0.013984 0.00302356 -0.0109604
-0.00642507 0.00812582 -0.00831479
-0.00377945 0.0111494 -0.00491329
0.000944863 0.0158737 0.000566918
-0.00359048 0.0117163 -0.00396842
-0.00529123 0.00869274 -0.00642507
0.000566918 0.0147399 0.000188973
0.00718096 0.0222988 0.0075589
0.00699199 0.0221098 0.00718096
-0.000944863 0.0141729 -0.00359048
-0.00850377 0.0124722 -0.00566918
-0.0308025 -0.00793685 -0.0168186
0.00302356 0.00736993 0.00812582
-0.0119053 0.00245664 -0.00774788
0.061983 -0.0105825 0.0546131
0.0754001 -0.0173855 0.0434637
-0.034393 0.00170075 -0.0334482
-0.0425188 0.00642507 -0.0181414
0.00642507 0.0160627 -0.00774788
0.00132281 -0.020409 -0.00529123
-0.0111494 -0.0311805 -0.00151178
-0.00604712 0.00170075 -0.00340151
0.00661404 -0.0797464 0.00718096
-0.00850377 -0.0684081 0.00264562
-0.0326923 -0.0736993 -0.00170075
-0.0162516 0.00340151 -0.0589595
-0.0102045 0.00850377 -0.0937304
-0.0685971 0.00472431 -0.0321253
-0.0109604 0.00151178 -0.0130391
-0.000188973 0.013606 -0.000566918
0.0120942 0.02759 0.0132281
0.0111494 0.0264562 0.0119053
0.00188973 -0.00944863 -0.0676522
Vibration 7
-0.0158737 0.00340151 0.0102045
-0.0153068 -0.00529123 0.0166296
-0.00736993 -0.0102045 0.0151178
-0.000566918 -0.00680301 0.0062361
0.00245664 0.000377945 -0.0128501
-0.00774788 0.0075589 0.00585815
0.0187083 -0.00151178 -0.0508336
-0.00718096 0.020976 0.0158737
-0.00680301 0.0336371 0.0270231
-0.0192752 0.00472431 0.00245664
-0.00472431 0.00661404 0.0041574
0.0041574 0.00188973 -0.00170075
-0.00226767 -0.00585815 -0.00907068
-0.0219208 -0.00585815 -0.0153068
-0.0304246 -0.000566918 -0.00944863
0.0134171 -0.0128501 -0.0107714
-0.00793685 -0.0141729 0.0149288
0 0.0105825 0.0062361
0.00321253 0.0355268 -0.00510226
-0.00151178 0.0326923 -0.00642507
-0.0107714 -0.00736993 0.00680301
-0.013795 -0.0302356 0.0173855
0.00396842 0.075778 -0.0228657
0.0272121 -0.0328812 -0.00226767
0.00340151 -0.00566918 0.00075589
0.00170075 -0.00736993 0.000944863
0.00264562 -0.0128501 -0.00113384
0.0141729 -0.0041574 0.00566918
0.0239995 0.00907068 0.0128501
-0.00680301 -0.0270231 -0.0111494
-0.00680301 -0.0332592 -0.0149288
0.00340151 -0.0241885 -0.00831479
0.0149288 -0.00925966 0.00264562
0.0445975 0.0311805 0.0262672
0.00132281 -0.00283459 0.00226767
-0.0153068 -0.0185193 -0.00566918
-0.0211649 -0.00831479 0.0232436
-0.000377945 -0.00888171 0.00113384
0.00113384 0.0119053 0.0107714
0.0170075 0.00302356 0.000377945
-0.0304246 -0.0100155 -0.0239995
-0.0451645 -0.00151178 -0.0130391
0.00472431 0.0130391 0.00774788
0.0096376 0.0602823 -0.0132281
-0.0151178 -0.0177634 0.00831479
-0.0202201 -0.0570697 0.0266451
-0.0147399 0.096754 -0.0364717
-0.00699199 0.0789905 -0.0270231
0.0385504 0.0886281 -0.0188973
0.0502667 -0.041385 0.00510226
0.0100155 -0.0538572 -0.000377945
0.0328812 -0.0179524 -0.00472431
-0.0128501 -0.0332592 -0.0160627
-0.0149288 -0.0455424 -0.0228657
0.00302356 -0.0291018 -0.0111494
0.0239995 -0.00170075 0.00831479
0.0230547 -0.0020787 -0.0636838
Vibration 8
-0.00907068 -0.0020787 -0.0253223
-0.00831479 -0.00510226 -0.0430858
-0.00529123 -0.00736993 -0.0304246
-0.00075589 -0.00472431 -0.0151178
-0.00283459 0.00132281 0.00491329
-0.00566918 0.00188973 -0.00188973
-0.00642507 0.00642507 0.0313695
-0.00566918 0.0120942 0.0226767
-0.00548021 0.0228657 0.0442196
-0.00944863 -0.00113384 -0.0200311
0.0147399 -0.020976 0.00888171
0.020787 -0.0234326 0.0230547
-0.000188973 -0.00604712 0.00699199
-0.0279679 0.0147399 -0.0239995
-0.0315584 0.0153068 -0.0364717
0.0107714 -0.0117163 0.0266451
-0.00510226 -0.00736993 -0.0194642
-0.0241885 -0.0281569 -0.00283459
-0.0217318 -0.0145509 0.0145509
0.000566918 0.0194642 0.0145509
0.0194642 0.0340151 -0.00113384
0.0158737 0.0200311 -0.0181414
0.00510226 0.0428968 0.0325033
-0.0105825 0.00642507 0.00907068
0.0143619 -0.00736993 0.00264562
0.00661404 -0.0103935 -0.00736993
0.00529123 -0.00472431 -0.00585815
0.000566918 -0.0062361 -0.00396842
0.00188973 -0.0105825 -0.000188973
0.0096376 0.00396842 -0.00302356
0.0075589 0.00850377 -0.00132281
0.00151178 0.00472431 -0.00170075
-0.00188973 -0.00226767 -0.00264562
-0.00491329 -0.0166296 0.000944863
0.00925966 -0.0232436 -0.0122832
0.0325033 -0.0020787 0.00982658
-0.00982658 -0.0062361 -0.0599043
0.013984 -0.0170075 -0.00944863
0.0298577 -0.034771 0.0196532
0.0419519 -0.0387394 0.0461093
-0.0455424 0.0292908 -0.0372276
-0.0508336 0.0291018 -0.0570697
-0.0423299 -0.0538572 -0.00396842
-0.0364717 -0.0292908 0.0270231
0.0366607 0.0574477 -0.00075589
0.0308025 0.0323143 -0.0306136
-0.0149288 0.0559359 0.0340151
0.0181414 0.0430858 0.0372276
0.0154958 0.0512116 0.041385
0.00472431 -0.00359048 0.0306136
-0.0132281 -0.00377945 -0.0313695
-0.0366607 0.0381725 0.0185193
0.0143619 0.00793685 -0.00113384
0.0107714 0.0151178 0.000377945
-0.000377945 0.00774788 -0.000944863
-0.00585815 -0.0041574 -0.00188973
-0.00359048 0.00888171 0.041385
Vibration 9
-0.00925966 -0.00661404 0.0166296
-0.00944863 -0.00661404 0.0196532
-0.00774788 -0.0075589 0.0020787
-0.00453534 -0.00604712 -0.0160627
-0.0096376 -0.00548021 0.0156847
-0.00869274 -0.00680301 0.0100155
-0.0168186 0.00132281 0.0561249
-0.00888171 -0.0115273 0.000566918
-0.00907068 -0.0183303 -0.00888171
-0.00888171 -0.0075589 0.0143619
-0.00907068 -0.00264562 0.00850377
-0.00736993 -0.00377945 0.00226767
-0.00585815 -0.0109604 0.00226767
-0.00548021 -0.0166296 0.00831479
-0.00736993 -0.0147399 0.0141729
-0.00434637 -0.0115273 -0.00548021
-0.00793685 -0.0107714 0.00283459
-0.00604712 0.013606 -0.00151178
-0.00472431 0.0230547 -0.00132281
-0.00548021 0.00321253 0.00453534
-0.00831479 -0.0311805 0.0122832
-0.00925966 -0.0370386 0.0111494
-0.00302356 0.020598 0.00321253
-0.00264562 -0.0202201 -0.00642507
0.00793685 -0.000944863 -0.0200311
-0.00113384 -0.00510226 -0.0326923
-0.00283459 0 -0.0326923
0.0179524 0.0230547 -0.00434637
0.00604712 0.00680301 -0.0132281
-0.00793685 -0.00491329 -0.041196
0.0183303 0.0291018 -0.00736993
0.048377 0.0651955 0.0313695
0.0455424 0.0583925 0.0306136
-0.00302356 -0.00264562 -0.0170075
0.0105825 -0.000188973 -0.0400622
0.0300466 0.00340151 -0.0105825
-0.0100155 -0.00680301 0.0332592
0.020787 0.0120942 -0.0338261
-0.0100155 0.00264562 0.00869274
-0.00736993 0.00075589 -0.00264562
-0.00396842 -0.0221098 0.00850377
-0.00793685 -0.0188973 0.0185193
-0.00510226 0.0253223 -0.00434637
-0.00302356 0.0466762 -0.00604712
-0.00925966 -0.0515895 0.0187083
-0.0109604 -0.0614161 0.0164406
-0.0120942 0.0391173 -0.0175745
-0.00661404 0.00245664 0.00321253
0.0115273 0.0360938 0.0230547
-0.00170075 -0.0185193 -0.0141729
-0.00377945 -0.020409 0.000188973
-0.00113384 -0.027779 -0.00680301
-0.0291018 -0.0340151 -0.0708647
0.0166296 0.027779 -0.0103935
0.0725655 0.096376 0.0614161
0.0638727 0.0803134 0.0572587
-0.0145509 0.00151178 0.0506447
Vibration 10
-0.00321253 -0.000377945 -0.0266451
-0.00396842 0.00302356 -0.0372276
-0.00699199 0.00510226 -0.0213539
-0.0100155 0.00359048 -0.00340151
-0.0120942 0.00302356 0.0075589
-0.0075589 -0.00132281 -0.0105825
-0.0141729 0.00850377 0.0313695
-0.00812582 -0.0102045 -0.00472431
-0.00869274 -0.0215429 -0.000566918
0.00604712 -0.00472431 -0.0168186
-0.00566918 -0.00585815 -0.0190862
0.00548021 -0.0109604 0.000188973
0.0268341 -0.0130391 0.0194642
0.0434637 -0.013606 0.0253223
0.0328812 -0.00944863 0.00718096
0.0338261 -0.0170075 0.0383614
-0.00736993 0.00283459 -0.0149288
-0.0122832 0.0160627 -0.0132281
-0.0117163 0.0179524 -0.00529123
-0.00642507 0.00264562 0.00226767
-0.0020787 -0.0162516 0.00226767
-0.00245664 -0.0154958 -0.00642507
-0.00529123 0.0075589 0.0115273
-0.0457314 0.0334482 -0.0313695
-0.00510226 0.00793685 -0.00113384
-0.0105825 0.00302356 0.00226767
-0.00245664 -0.00283459 0.00491329
0.00944863 0.00302356 0.00434637
0.0190862 0.020976 0.00925966
-0.00718096 -0.0151178 0.00396842
-0.00453534 -0.0264562 -0.00151178
0.00453534 -0.0226767 -0.0041574
0.0132281 -0.00661404 0
0.0472432 0.0506447 0.0249444
-0.0187083 0.0020787 0.00888171
-0.0143619 0.00585815 -0.00453534
-0.00132281 0.00396842 -0.0527234
-0.0251334 0.00359048 0.00529123
-0.0249444 -0.00264562 -0.0362827
-0.00377945 -0.0120942 -0.000944863
0.0659514 -0.0185193 0.0453534
0.0459203 -0.00982658 0.0115273
-0.0164406 0.0238105 -0.0171965
-0.0153068 0.0311805 -0.00453534
0.00188973 -0.0309915 0.00907068
0.00113384 -0.0285349 -0.00680301
-0.0109604 0.02759 -0.0153068
-0.00302356 -0.0255113 0.0147399
-0.000566918 0.0268341 0.0440306
-0.0774788 0.0476211 -0.0506447
-0.00510226 0.0744552 -0.0867384
-0.111116 0.0143619 -0.00548021
-0.0113384 -0.0156847 0.00718096
-0.00982658 -0.0385504 -0.00340151
0.00566918 -0.0317474 -0.00907068
0.0224877 -0.00151178 -0.000188973
-0.0168186 0.0105825 0.0565028
Vibration 11
-0.013795 0.00774788 0.0260782
-0.013606 0.000944863 0.0325033
-0.00944863 -0.00245664 0.0111494
-0.00321253 0.000188973 -0.00718096
-0.00264562 0.00453534 -0.0107714
-0.00869274 0.00831479 0.0041574
0.00642507 0.00453534 -0.0266451
-0.00831479 0.0109604 -0.0103935
-0.00793685 0.0124722 -0.0251334
-0.0109604 0.00585815 0.0272121
-0.0158737 0.0217318 0.00774788
-0.00226767 0.0145509 0.00075589
0.0158737 -0.00850377 0.0130391
0.0230547 -0.0255113 0.0332592
0.00869274 -0.0164406 0.0396842
0.0304246 -0.0149288 0.00359048
-0.0102045 -0.0041574 0.00680301
-0.0160627 -0.0457314 0.0162516
-0.0164406 -0.0453534 0.0147399
-0.0113384 0.00529123 0.00113384
-0.00585815 0.0487549 -0.00982658
-0.00718096 0.041385 -0.00661404
-0.0100155 0.0156847 -0.00264562
-0.0154958 -0.0111494 -0.0451645
0.0126612 -0.00245664 -0.00226767
0.00642507 -0.00491329 -0.00944863
0.00491329 -0.00226767 -0.00925966
0.00245664 -0.00302356 -0.00831479
0.00642507 -0.00264562 -0.00264562
0.0096376 0.00566918 -0.00472431
0.00869274 0.00793685 -0.00377945
0.00321253 0.00340151 -0.00680301
0.000377945 -0.00132281 -0.00812582
0.00642507 -0.00188973 0.00151178
0.0126612 -0.0170075 -0.0166296
0.0179524 -0.00340151 0
-0.0175745 -0.000944863 0.048377
0.0187083 -0.020598 -0.0134171
-0.0306136 0.0406291 -0.00188973
-0.00661404 0.0266451 -0.013984
0.0402512 -0.0461093 0.0451645
0.0126612 -0.0281569 0.0534792
-0.0215429 -0.075967 0.0221098
-0.0198421 -0.0822031 0.0226767
-0.00151178 0.0882502 -0.020976
-0.00396842 0.0733214 -0.013984
-0.0158737 0.00888171 0.0160627
-0.00869274 0.041196 -0.00396842
-0.00396842 0.00642507 -0.0232436
-0.027779 0.00113384 -0.0784236
0.00453534 0.0102045 -0.0638727
-0.054991 -0.041385 -0.0291018
0.0141729 0.0111494 0.000188973
0.0122832 0.013795 -0.00075589
0.00151178 0.00453534 -0.00699199
-0.00245664 -0.00302356 -0.00850377
0.00869274 0.00302356 -0.0417629
Vibration 12
0.00718096 -0.00944863 0.0147399
0.00661404 -0.00132281 0.0100155
-0.00075589 0.00340151 -0.00340151
-0.00548021 0.000566918 -0.00793685
-0.00925966 -0.00699199 0.0124722
0.000566918 -0.0124722 0.0107714
-0.013606 -0.00491329 0.0291018
-0.000188973 -0.0311805 0.00566918
-0.00132281 -0.055369 0
0.00907068 -0.0107714 0.0162516
0.0173855 -0.0145509 0.0228657
0.00359048 -0.00812582 0.0100155
-0.0181414 0.000566918 -0.00831479
-0.0211649 0.00132281 -0.00982658
-0.00736993 -0.00529123 0.00245664
-0.0410071 0.0119053 -0.0302356
-0.000377945 0.0103935 -0.00718096
-0.0075589 -0.0134171 0.000944863
-0.00812582 -0.0187083 0.0062361
-0.00151178 0.00718096 0.00132281
0.00642507 0.0410071 -0.0102045
0.00604712 0.0398732 -0.013984
-0.00340151 -0.0075589 0.00661404
0.0158737 -0.0181414 0.0217318
-0.00642507 0.00472431 -0.0162516
-0.00718096 0.00321253 -0.0120942
-0.000566918 0.00170075 -0.00869274
0.00680301 0.00434637 -0.0109604
0.0200311 0.0234326 -0.00170075
0.0041574 0.00340151 0
0.00774788 -0.00340151 -0.00226767
0.00850377 -0.00736993 -0.0113384
0.0100155 -0.00151178 -0.0134171
0.0580146 0.0640617 0.0238105
-0.0096376 0.00434637 -0.00907068
-0.0232436 -0.00245664 -0.0221098
0.0130391 0.00226767 0.0145509
-0.0122832 -0.00151178 -0.0109604
0.0340151 -0.0221098 0.0366607
0.00869274 -0.00944863 0.0128501
-0.0370386 0.00850377 -0.0232436
-0.0115273 -0.00453534 0.000566918
-0.013606 -0.02759 0.00188973
-0.013984 -0.0430858 0.013984
0.0128501 0.0659514 -0.0154958
0.0111494 0.0625499 -0.0215429
0.00340151 -0.0767229 0.114328
0.0151178 0.107903 0.00510226
-0.0319364 -0.0738883 -0.0984547
0.0224877 -0.0213539 0.0272121
-0.00396842 -0.0338261 0.0718096
0.0680301 -0.0196532 0.00151178
0.00718096 0.0111494 0.0107714
0.00982658 -0.00491329 0.00396842
0.00944863 -0.013795 -0.0147399
0.0141729 -0.000377945 -0.0158737
-0.020787 -0.0062361 0.0417629
Vibration 13
-0.00226767 0.000188973 -0.0102045
-0.0020787 -0.00170075 -0.00774788
-0.000188973 -0.00283459 0.00113384
0.00113384 -0.0020787 0.00245664
0.00226767 0.000188973 -0.00264562
-0.000377945 0.00132281 -0.00529123
0.00283459 0.000377945 -0.00321253
-0.000188973 0.00699199 -0.000377945
0 0.0143619 0.00510226
-0.00321253 0.000944863 -0.0105825
-0.00888171 0.00075589 -0.0119053
-0.00453534 -0.00113384 -0.00396842
0.00491329 -0.0020787 0.00453534
0.0075589 -0.000377945 0.00340151
0.00377945 0.00113384 -0.00396842
0.0143619 -0.00699199 0.0179524
0 -0.00359048 0.00604712
0.00226767 0.0130391 0.00170075
0.0041574 0.0215429 0.000377945
0.00264562 0.0107714 0.00396842
-0.00075589 -0.0117163 0.00907068
-0.000944863 -0.0185193 0.0100155
0.000944863 0.0041574 -0.00774788
-0.0141729 0.0113384 -0.00699199
0.0020787 -0.0020787 0.00302356
0.00151178 -0.00226767 0.00151178
-0.000566918 -0.00264562 -0.000188973
0 -0.000944863 0.00302356
-0.00396842 -0.00642507 -0.000188973
-0.00340151 -0.00510226 -0.00453534
-0.00264562 -0.00188973 -0.0020787
0.00075589 0.00340151 0.00434637
0.00151178 0.00302356 0.0062361
-0.0141729 -0.0173855 -0.00718096
0.00264562 -0.000188973 0.00075589
0.00793685 0.000188973 0.00510226
-0.00377945 -0.00283459 -0.0105825
0.00396842 0.00396842 0.00170075
-0.0162516 0.00170075 -0.0185193
-0.00812582 -0.0020787 -0.0041574
0.013984 -0.00075589 0.00925966
0.00718096 0.0020787 -0.00396842
0.00396842 0.0192752 0.00075589
0.00453534 0.0366607 -0.00226767
-0.00075589 -0.0243775 0.0132281
-0.00302356 -0.034393 0.013984
0.0117163 -0.20598 0.330135
0.0410071 0.390228 -0.020787
-0.0561249 -0.203901 -0.355268
-0.00944863 0.00812582 0.000377945
-0.00793685 0.0128501 -0.0417629
-0.0436527 0.0253223 0.0041574
-0.00604712 -0.00982658 -0.0100155
-0.00453534 -0.00302356 -0.00510226
0.00245664 0.00699199 0.00736993
0.00283459 0.00529123 0.0096376
0.00491329 0.00113384 -0.00434637
Vibration 14
-0.00529123 0.00396842 0.0183303
-0.00321253 -0.000377945 -0.0143619
0.00321253 -0.00548021 -0.0370386
0.00491329 -0.00321253 -0.0264562
0.00377945 0.000944863 0.00302356
-0.00245664 0.00340151 0.0100155
-0.0075589 0.00472431 0.0379835
-0.00075589 0.0353379 -0.00793685
0.00226767 0.0905179 -0.0381725
0.00226767 0.00151178 0.0374166
0.0153068 0.00434637 0.0372276
0.0164406 0.00434637 0.0228657
0.00283459 -0.00075589 0.00982658
0.00850377 -0.0141729 0.0257003
0.00510226 -0.0100155 0.0368497
-0.0219208 0.0122832 -0.0366607
0.00340151 -0.00566918 -0.0428968
-0.0100155 0.0141729 -0.0351489
-0.00831479 0.0238105 -0.0134171
0.00925966 0.0020787 0.00188973
0.0241885 -0.0200311 -0.00491329
0.0215429 -0.0211649 -0.0281569
0.0103935 -0.00151178 0.0336371
0.00907068 -0.0262672 -0.0162516
-0.0115273 -0.0134171 -0.00226767
-0.000944863 -0.00566918 -0.00170075
0.00566918 0.00188973 0.00831479
-0.00245664 -0.0041574 0.00396842
-0.00377945 -0.00642507 0.00377945
0.00718096 0.00510226 0.00944863
-0.000188973 0.00113384 0.00340151
-0.0105825 -0.00869274 -0.00453534
-0.0111494 -0.0105825 -0.0041574
-0.00113384 -0.00321253 0.00604712
-0.0185193 -0.0130391 0.0103935
-0.0224877 -0.0262672 -0.00491329
-0.00680301 -0.00264562 -0.0200311
-0.0313695 -0.00850377 0.00359048
0.0228657 0.00944863 0.0449755
0.0224877 0.00925966 0.0190862
0.0111494 -0.0257003 0.0258892
0.00188973 -0.0160627 0.0421409
-0.0238105 0.0202201 -0.0428968
-0.020787 0.0449755 -0.00774788
0.0376055 -0.0366607 0.00718096
0.0349599 -0.0362827 -0.034771
0.00283459 -0.0141729 0.0634948
0.0351489 0.0170075 0.041196
-0.00699199 -0.0130391 0.0224877
-0.0268341 -0.00075589 -0.0742662
0.0196532 0.00113384 0.0657625
0.0531013 -0.103935 -0.0313695
0.0107714 0.00812582 0.0115273
0.00113384 0.00453534 0.00340151
-0.0179524 -0.0145509 -0.0115273
-0.0183303 -0.0171965 -0.0102045
-0.000188973 0.00453534 0.0160627
Vibration 15
-0.00661404 0.013606 -0.0041574
-0.00831479 0.0113384 -0.0232436
-0.0111494 0.0120942 -0.0238105
-0.0132281 0.0100155 -0.0126612
-0.0145509 0.0109604 -0.0311805
-0.0117163 0.0113384 -0.0122832
0.00604712 0.0120942 -0.0597153
-0.0130391 -0.020976 -0.00340151
-0.0158737 -0.075778 0.00566918
0.00925966 0.00774788 0.0173855
0.0319364 0.00283459 0.0294797
0.034204 0.0020787 0.0236216
0.0117163 0.00888171 0.00434637
0.013984 0.00170075 0.0128501
0.0113384 0.00359048 0.0177634
-0.0249444 0.027401 -0.0374166
-0.0128501 0.00245664 -0.0198421
-0.0221098 0.00642507 -0.0141729
-0.0215429 0.0102045 -0.00396842
-0.0145509 0.000566918 0.00264562
-0.00793685 -0.0215429 0.00170075
-0.00812582 -0.0179524 -0.0105825
-0.0119053 0.0158737 0.0130391
0.0154958 0.000944863 -0.00245664
0.0236216 0.0160627 0.0228657
-0.00434637 -0.000377945 0.00680301
0.00075589 -0.00075589 0.0105825