[Molden Format]
[FREQ]
-172.1
12.2
22.4
27.4
29.6
33.5
38.8
43.5
46.2
49.2
61.6
72.8
81.3
85.5
87.1
116.4
128.5
135.1
141.2
147.0
151.4
163.8
176.2
193.4
217.5
225.0
248.5
257.6
262.0
281.6
314.2
328.9
339.9
344.2
356.6
357.6
361.1
370.4
393.0
420.9
443.8
449.9
469.2
476.3
503.2
526.7
534.6
546.1
558.7
569.2
572.6
603.6
610.0
615.4
621.3
632.8
645.0
656.2
669.0
686.7
710.0
721.7
742.5
774.1
788.0
809.3
821.8
826.1
851.1
861.9
882.8
885.1
889.5
901.1
902.0
950.7
966.2
979.2
991.1
1007.1
1010.7
1014.5
1019.4
1020.9
1021.7
1033.5
1070.4
1073.2
1080.4
1084.9
1125.8
1134.3
1159.4
1177.1
1181.5
1185.1
1200.8
1203.1
1234.4
1240.7
1246.6
1263.0
1269.0
1271.6
1282.5
1286.0
1289.5
1297.1
1300.6
1301.8
1328.0
1338.4
1343.4
1350.4
1351.1
1355.2
1365.2
1365.7
1382.5
1394.0
1426.0
1447.7
1464.7
1497.0
1505.0
1520.6
1524.9
1530.7
1564.0
1565.4
1596.9
1607.9
1643.6
1683.4
1695.3
1697.4
1706.6
1707.6
1752.5
1799.9
1830.0
2061.5
2273.2
2451.3
2648.2
2651.2
2653.4
2665.1
2673.4
2701.9
2736.7
2739.0
2740.0
2744.6
2745.0
2747.9
2748.6
2757.3
2761.7
2764.4
2764.6
2767.9
2768.2
2777.9
2779.2
       
[FR-COORD]
C -1.95398 -2.61085 -1.07166
C 0.683514 -2.61085 -1.07166
C 2.00292 -0.325789 -1.07166
N 0.76704 1.92412 -0.966595
C -1.82321 1.97495 -0.908013
C -3.24334 -0.284215 -1.06713
N -2.93663 4.36905 -0.734159
C -5.90558 -0.233192 -1.35361
N -8.07064 -0.229602 -1.67052
C -3.32592 -5.00758 -1.08678
C -2.77771 -6.8255 -2.93758
C -4.06499 -9.1013 -2.97178
C -5.90955 -9.55918 -1.1121
C -6.46248 -7.78076 0.757024
C -5.16103 -5.49702 0.747765
O -7.01617 -11.8543 -1.36004
C 4.7829 -0.305947 -1.08319
C 6.07396 -1.03557 1.10171
C 8.69992 -1.02461 1.1259
C 10.046 -0.305569 -1.03292
C 8.74225 0.395709 -3.21953
C 6.1127 0.402512 -3.24749
C 12.8603 -0.254168 -0.981902
C -8.97903 -12.4743 0.368308
C -4.94088 4.85584 0.977744
C 1.76406 3.09953 4.21314
C 1.41257 5.41595 3.32384
C 2.36499 6.21814 0.880423
C 2.52694 4.82844 -1.27254
C 0.342607 7.35179 4.9645
C 0.817684 9.81524 4.51191
C 2.39277 10.5653 2.4026
C 3.14337 8.839 0.6769
O 3.23427 4.77326 -3.39451
O 1.91089 1.02669 4.93237
O -5.88933 3.16718 2.16355
H 1.72797 -4.39002 -1.05636
H -1.86837 5.87837 -1.3315
H -1.34473 -6.43168 -4.36867
H -3.68686 -10.5299 -4.39928
H -7.88375 -8.13811 2.19152
H -5.5779 -4.07916 2.19303
H 5.02667 -1.59568 2.7898
H 9.70922 -1.56734 2.83327
H 9.77933 0.961493 -4.90233
H 5.0964 0.986626 -4.94768
H 13.6574 -1.77086 0.19124
H 13.5459 1.54882 -0.194831
H 13.6988 -0.447676 -2.87106
H -9.55068 -14.3619 -0.282325
H -10.5562 -11.1452 0.20409
H -8.25583 -12.5654 2.30339
H -0.803511 6.72572 6.54639
H 0.0576366 11.3032 5.70357
H 2.93739 12.5349 2.27429
H 4.31179 9.35792 -0.937493
H -5.51195 6.85177 1.04143

[FR-NORM-COORD]
Vibration 1
-0.0109604 -0.0245664 -0.00321253
-0.0115273 -0.0381725 -0.00321253
-0.0170075 -0.0340151 0.00434637
-0.0215429 -0.047999 0.0126612
-0.00944863 -0.0389284 0.00566918
-0.0190862 -0.0296687 -0.000377945
0.0075589 -0.0247554 0.00170075
-0.0170075 -0.0202201 -0.000377945
-0.0168186 -0.00472431 -0.00151178
-0.0117163 -0.0219208 -0.00283459
-0.0107714 -0.0179524 -0.00491329
-0.0102045 -0.0177634 -0.00302356
-0.00793685 -0.0143619 -0.000566918
-0.00869274 -0.0164406 0.000566918
-0.00850377 -0.0170075 0.000377945
-0.00850377 -0.0149288 0.00075589
-0.013606 -0.0154958 0.00340151
-0.0075589 -0.00510226 0.00283459
-0.00680301 0.00245664 0.00170075
-0.00925966 0.00170075 0.000566918
-0.013984 -0.0041574 0.00151178
-0.0145509 -0.0156847 0.00264562
-0.00869274 0.00302356 -0.00226767
-0.00831479 -0.0107714 0.00151178
0.0115273 -0.00850377 -0.00548021
0.00774788 0.0119053 -0.0364717
0.0325033 0.0239995 -0.0187083
0.0572587 0.0676522 0.0062361
0.116218 0.156469 -0.0239995
0.00472431 -0.000944863 -0.0062361
-0.020598 0.00888171 0.0243775
-0.0115273 0.0527234 0.0453534
0.027779 0.0842818 0.0362827
0.0445975 0.0200311 -0.0226767
0.00188973 0.0200311 -0.0171965
-0.00170075 0.00170075 0.000944863
-0.0170075 -0.0389284 -0.00831479
0.0245664 -0.0425188 0.00226767
-0.0120942 -0.0153068 -0.00510226
-0.0122832 -0.0185193 -0.0020787
-0.00812582 -0.0166296 0.00075589
-0.00566918 -0.0153068 -0.000944863
-0.0041574 -0.00869274 0.00340151
-0.00510226 0.00585815 0.00151178
-0.0170075 -0.00585815 -0.00075589
-0.0164406 -0.0328812 -0.000944863
-0.00793685 0.00132281 -0.00472431
-0.0075589 0.00170075 -0.00113384
-0.0109604 0.0041574 -0.00321253
-0.0113384 -0.0105825 0.0041574
-0.00661404 -0.00869274 0.000944863
-0.00774788 -0.00944863 0.00132281
-0.000566918 -0.0279679 -0.0190862
-0.0457314 -0.0126612 0.0351489
-0.0353379 0.062172 0.0731324
0.0421409 0.116218 0.0582036
0.0164406 -0.00699199 -0.0119053
Vibration 2
0.00359048 0.00585815 -0.0109604
0.00359048 0.00529123 -0.0105825
0.0041574 0.00510226 -0.0145509
0.00434637 0.00529123 -0.0198421
0.00434637 0.00604712 -0.02759
0.00396842 0.00604712 -0.0221098
0.00472431 0.0075589 -0.041196
0.00453534 0.00585815 -0.0266451
0.00491329 0.00585815 -0.0300466
0.00283459 0.0062361 0.0020787
0.0020787 -0.00548021 0.0134171
0.00188973 -0.00548021 0.0281569
0.00226767 0.00642507 0.0313695
0.00245664 0.0183303 0.0200311
0.00283459 0.0181414 0.00529123
0.0020787 0.00472431 0.0464873
0.00396842 0.00472431 -0.0132281
0.00359048 -0.00812582 -0.0171965
0.00359048 -0.00831479 -0.0164406
0.0041574 0.0041574 -0.0119053
0.00472431 0.0171965 -0.00812582
0.00472431 0.0175745 -0.00869274
0.0041574 0.00377945 -0.0111494
0.00377945 0.0153068 0.0521564
0.00359048 0.0164406 -0.0449755
-0.0166296 -0.034771 -0.00642507
-0.0145509 -0.0289128 0.00812582
-0.00226767 -0.0096376 0.0192752
0.00604712 0.00888171 0.00812582
-0.0258892 -0.0421409 0.0164406
-0.0239995 -0.0385504 0.0383614
-0.0111494 -0.0217318 0.0540462
-0.00075589 -0.00793685 0.0447865
0.0128501 0.0258892 0.0100155
-0.0179524 -0.0396842 -0.0202201
0.00170075 0.0221098 -0.0385504
0.00321253 0.00510226 -0.00548021
0.00566918 0.00321253 -0.048377
0.00188973 -0.0147399 0.0105825
0.00132281 -0.0147399 0.0372276
0.00264562 0.027779 0.0224877
0.00321253 0.027401 -0.00359048
0.00302356 -0.0177634 -0.020787
0.00321253 -0.0183303 -0.0194642
0.00510226 0.0270231 -0.00453534
0.00529123 0.027779 -0.00548021
0.00396842 0.000377945 -0.0156847
0.0041574 0.00151178 -0.00566918
0.00434637 0.00944863 -0.0117163
0.00453534 0.0103935 0.0653845
0.00283459 0.0132281 0.0442196
0.00510226 0.0289128 0.0523454
-0.0360938 -0.054991 0.00396842
-0.0323143 -0.047999 0.0449755
-0.0102045 -0.020787 0.0731324
0.00888171 0.00472431 0.0559359
0.00434637 0.0170075 -0.0546131
Vibration 3
-0.00982658 -0.00340151 -0.00491329
-0.0096376 -0.00188973 -0.00510226
-0.0113384 -0.00113384 -0.0041574
-0.0132281 -0.0020787 -0.00642507
-0.0128501 -0.00340151 -0.00718096
-0.0117163 -0.00434637 -0.00472431
-0.0111494 -0.00226767 -0.0096376
-0.0120942 -0.00661404 -0.00132281
-0.0126612 -0.00907068 0.00188973
-0.00718096 -0.00491329 -0.00377945
-0.00774788 -0.00340151 -0.00566918
-0.00264562 -0.0062361 -0.00283459
0.00321253 -0.0107714 0.00188973
0.00283459 -0.0119053 0.00264562
-0.00245664 -0.00869274 -0.000188973
0.00907068 -0.013984 0.00529123
-0.0113384 0.00510226 0.00245664
-0.0156847 0.00850377 0.00604712
-0.0156847 0.0232436 0.0162516
-0.0115273 0.034582 0.0224877
-0.00718096 0.0283459 0.0179524
-0.00718096 0.0134171 0.00774788
-0.0122832 0.0540462 0.034582
0.0164406 -0.0200311 0.0115273
-0.0120942 0.00151178 -0.0122832
-0.0215429 -0.013606 -0.0185193
0.0168186 -0.00283459 -0.00566918
0.0154958 -0.00661404 -0.00736993
-0.0103935 0.00113384 -0.013606
0.0612271 0.00680301 0.0119053
0.0976988 0.00132281 0.0213539
0.0922186 -0.0130391 0.0122832
0.0510226 -0.0164406 -0.0020787
-0.0332592 0.00434637 -0.0211649
-0.0565028 -0.0192752 -0.0272121
-0.013606 0.00396842 -0.0100155
-0.00869274 -0.00132281 -0.00491329
-0.0115273 -0.00491329 -0.0153068
-0.0119053 0 -0.00888171
-0.00283459 -0.00529123 -0.00377945
0.00680301 -0.0149288 0.00566918
-0.00264562 -0.0096376 0.000566918
-0.0188973 0.000188973 0.00132281
-0.0192752 0.0268341 0.0192752
-0.00396842 0.0355268 0.0222988
-0.00396842 0.00869274 0.00434637
-0.00642507 0.0602823 0.0387394
-0.0281569 0.0593374 0.0364717
-0.00283459 0.0589595 0.0381725
0.020976 -0.0222988 0.0141729
0.0115273 -0.0255113 0.0158737
0.0226767 -0.0168186 0.00944863
0.0627389 0.0175745 0.0173855
0.131525 0.00736993 0.0353379
0.121131 -0.020598 0.0164406
0.0451645 -0.0262672 -0.0096376
-0.0111494 0.00188973 -0.0158737
Vibration 4
-0.0122832 0.0151178 -0.0107714
-0.0124722 0.0119053 -0.0126612
-0.00944863 0.0102045 -0.00604712
-0.00642507 0.0113384 -0.00321253
-0.00661404 0.0143619 -0.00264562
-0.00982658 0.0162516 -0.00226767
-0.00321253 0.0160627 -0.00302356
-0.0109604 0.0179524 0.00812582
-0.0122832 0.0181414 0.0181414
-0.00944863 0.0134171 -0.0151178
-0.0166296 0.0251334 -0.0287238
-0.000377945 0.0158737 -0.0239995
0.0241885 -0.00529123 -0.00491329
0.0262672 -0.013795 0.00359048
0.00869274 -0.00359048 -0.00188973
0.0449755 -0.0162516 0.00283459
-0.00944863 0.000188973 -0.000377945
-0.0185193 -0.0162516 -0.000377945
-0.0185193 -0.0394953 0.00302356
-0.00944863 -0.0459203 0.00642507
-0.00075589 -0.0247554 0.00793685
-0.000566918 -0.00151178 0.00453534
-0.00888171 -0.0763449 0.00812582
0.0820141 -0.0468652 0.0338261
0.000377945 0.020787 0
-0.0115273 0.00718096 -0.00170075
-0.00642507 0.00831479 -0.000377945
-0.00226767 0.00793685 0.00113384
-0.00170075 0.00831479 0.00075589
-0.00472431 0.00944863 -0.000566918
0 0.00888171 0.00113384
0.00340151 0.00718096 0.00321253
0.00226767 0.00680301 0.00302356
0.00151178 0.00812582 0.00188973
-0.0160627 0.00604712 -0.00359048
0.000188973 0.0234326 0.00340151
-0.0147399 0.0103935 -0.0185193
-0.00132281 0.013984 -0.00510226
-0.0338261 0.0408181 -0.0417629
-0.00472431 0.0239995 -0.0332592
0.041574 -0.0283459 0.0153068
0.0103935 -0.0102045 0.00491329
-0.0255113 -0.0119053 -0.00340151
-0.0253223 -0.0536682 0.00264562
0.00642507 -0.02759 0.0113384
0.00661404 0.013606 0.00529123
-0.0258892 -0.082581 0.0117163
0.0103935 -0.0822031 0.00453534
-0.0102045 -0.089762 0.00888171
0.0986437 -0.0540462 0.0402512
0.0602823 -0.069164 0.0610381
0.114139 -0.0391173 0.0221098
-0.00736993 0.0105825 -0.00188973
0.00151178 0.00944863 0.00113384
0.00699199 0.0062361 0.00472431
0.00491329 0.00548021 0.00453534
0.00321253 0.0215429 -0.00151178
Vibration 5
0.00510226 -0.00472431 -0.00585815
0.00472431 -0.00548021 -0.0156847
0.00510226 -0.00529123 -0.013984
0.00472431 -0.00548021 -0.0149288
0.00491329 -0.00510226 -0.0103935
0.00453534 -0.00529123 0.00188973
0.00434637 -0.00434637 -0.0183303
0.00170075 -0.00774788 0.0258892
-0.00151178 -0.0111494 0.048188
0.00151178 -0.00302356 -0.00321253
-0.0391173 0.0154958 -0.0330702
-0.0493218 0.0211649 -0.034393
-0.0166296 0.00831479 -0.00529123
0.0264562 -0.0109604 0.0260782
0.034582 -0.0156847 0.0264562
-0.0328812 0.0168186 -0.0117163
0.00510226 -0.00321253 -0.00472431
-0.00434637 -0.0128501 -0.0020787
-0.00472431 -0.00245664 0.013606
0.00510226 0.0171965 0.0260782
0.0149288 0.0228657 0.0221098
0.0149288 0.0122832 0.00661404
0.00434637 0.0325033 0.0442196
-0.00188973 0.00529123 0.0194642
0.0190862 0.00453534 -0.00340151
0.00793685 -0.00925966 -0.0111494
-0.00151178 -0.0107714 -0.0111494
-0.0020787 -0.00585815 -0.00982658
0.000944863 -0.00283459 -0.0115273
-0.0128501 -0.0158737 -0.0126612
-0.0228657 -0.013606 -0.0115273
-0.0213539 -0.00661404 -0.00812582
-0.0109604 -0.00302356 -0.00718096
0.00113384 0.00151178 -0.0117163
0.0162516 -0.00869274 -0.0113384
0.0313695 0.0105825 0.0149288
0.0041574 -0.00585815 -0.0226767
-0.000377945 -0.00793685 -0.0349599
-0.0634948 0.0257003 -0.0546131
-0.0822031 0.0357158 -0.0576366
0.0527234 -0.0219208 0.0493218
0.0668963 -0.0291018 0.0487549
-0.0119053 -0.02759 -0.0115273
-0.0126612 -0.00888171 0.0162516
0.0224877 0.0360938 0.0311805
0.0228657 0.0166296 0.00340151
0.00566918 0.0359048 0.0478101
-0.0107714 0.0355268 0.0504557
0.0175745 0.0389284 0.0493218
-0.0257003 0.0170075 0.00604712
0.00226767 0.0162516 0.068786
0.0366607 -0.0243775 0.00377945
-0.0132281 -0.0211649 -0.0149288
-0.0317474 -0.0171965 -0.0130391
-0.0287238 -0.00453534 -0.00604712
-0.00944863 0.00188973 -0.00453534
0.0173855 0.0041574 -0.0107714
Vibration 6
-0.0062361 0.00302356 -0.00888171
-0.0062361 0.00453534 -0.00774788
-0.00604712 0.00472431 -0.0075589
-0.00642507 0.00453534 -0.0075589
-0.0062361 0.00283459 -0.00548021
-0.0062361 0.00321253 -0.0096376
-0.00888171 0.00132281 0.00434637
-0.00566918 0.0062361 -0.0145509
-0.00491329 0.0109604 -0.0192752
-0.00453534 0.00226767 -0.00566918
0.0147399 -0.0115273 0.0134171
0.0192752 -0.0141729 0.0200311
0.00340151 -0.00302356 0.00680301
-0.0173855 0.0113384 -0.0128501
-0.020787 0.0132281 -0.0187083
0.0109604 -0.0075589 0.0162516
-0.00604712 0.00151178 -0.000188973
-0.0162516 -0.0427078 -0.00850377
-0.0166296 -0.0466762 0.00396842
-0.00566918 -0.00642507 0.0241885
0.00491329 0.0357158 0.0313695
0.00510226 0.0385504 0.0188973
-0.00604712 -0.00925966 0.0383614
-0.00453534 0.00321253 0.00245664
-0.00245664 -0.0075589 0.0141729
0.0523454 -0.00359048 -0.0120942
0.027401 -0.00434637 -0.00434637
-0.00396842 0.00642507 -0.0128501
-0.0175745 0.0111494 -0.0166296
0.0315584 -0.0149288 0.0105825
0.00850377 -0.0105825 0.00944863
-0.0200311 0.00434637 -0.00661404
-0.0253223 0.0126612 -0.0170075
-0.0383614 0.0190862 -0.0239995
0.0744552 -0.00302356 -0.0153068
0.00491329 -0.0134171 0.0120942
-0.00548021 0.00491329 -0.00661404
-0.0145509 0.00434637 0.00264562
0.0264562 -0.0202201 0.0226767
0.0351489 -0.0249444 0.0349599
-0.0304246 0.020598 -0.0234326
-0.0360938 0.0232436 -0.0328812
-0.0243775 -0.0746442 -0.0239995
-0.0253223 -0.0810692 -0.00170075
0.0134171 0.0657625 0.0464873
0.0141729 0.0676522 0.0230547
-0.0122832 -0.0183303 0.0306136
-0.00850377 -0.0154958 0.054991
0.00264562 0.00434637 0.0406291
0.00718096 -0.00434637 0.0145509
-0.00642507 -0.00245664 -0.0258892
-0.0238105 0.0234326 0.0105825
0.0536682 -0.0258892 0.0222988
0.0109604 -0.0183303 0.020409
-0.0362827 0.00869274 -0.00944863
-0.0462983 0.0238105 -0.0287238
-0.00529123 -0.00869274 0.0238105
Vibration 7
0.000566918 -0.00132281 0.0349599
0.00075589 0.00226767 0.0309915
-0.000944863 0.00321253 0.0117163
-0.00377945 0.00245664 -0.0096376
-0.00340151 0.000377945 -0.00869274
-0.00226767 -0.00283459 0.0268341
-0.00359048 0.0041574 -0.0521564
-0.00548021 -0.00736993 0.0555579
-0.0096376 -0.0124722 0.0844708
0.0075589 -0.00548021 0.0313695
0.0326923 -0.00359048 0.0362827
0.0366607 -0.00510226 0.0177634
0.0130391 -0.00888171 -0.00642507
-0.00812582 -0.013795 -0.00831479
-0.0100155 -0.0124722 0.0115273
0.0153068 -0.00774788 -0.0272121
-0.00132281 0.00359048 0.0075589
0.0020787 -0.0102045 0.00113384
0.0020787 -0.0170075 -0.00472431
-0.000944863 -0.00982658 -0.00434637
-0.0041574 0.00642507 0.00283459
-0.00434637 0.0128501 0.00888171
-0.000566918 -0.020409 -0.0117163
-0.0234326 -0.00245664 -0.0693529
0.0100155 0.0417629 -0.0470542
-0.00548021 -0.00661404 -0.0119053
-0.00396842 -0.00491329 -0.00774788
-0.00264562 0 -0.00566918
-0.00907068 0.00793685 -0.0105825
-0.00566918 -0.00793685 -0.00510226
-0.00321253 -0.00736993 0.00113384
0.000944863 -0.00396842 0.00548021
0.00113384 -0.000188973 0.00188973
-0.0196532 0.0154958 -0.0145509
-0.00566918 -0.00812582 -0.0160627
0.0190862 0.0670853 -0.00396842
0.00302356 0.00359048 0.041574
-0.00812582 -0.0102045 -0.0939194
0.0487549 0 0.0532903
0.0559359 -0.00302356 0.020598
-0.0234326 -0.0185193 -0.0243775
-0.0264562 -0.0168186 0.0111494
0.00434637 -0.0156847 0.000944863
0.00472431 -0.0285349 -0.0100155
-0.00680301 0.0132281 0.00359048
-0.00642507 0.0238105 0.013795
-0.00302356 -0.0296687 -0.0219208
0.00831479 -0.0272121 -0.0041574
-0.00661404 -0.013606 -0.0151178
-0.020409 0.00264562 -0.0869274
-0.0130391 0.00661404 -0.0971319
-0.0631168 -0.0122832 -0.054991
-0.0096376 -0.0109604 -0.00907068
-0.00453534 -0.00944863 0.00302356
0.00396842 -0.00434637 0.0117163
0.00396842 0.00226767 0.00491329
0.0103935 0.0430858 -0.0859825
Vibration 8
-0.00944863 0.00302356 -0.020409
-0.00869274 -0.00226767 -0.0304246
-0.00264562 -0.0062361 -0.0239995
0.00302356 -0.00321253 -0.0153068
0.0041574 0.00226767 -0.0062361
-0.00283459 0.00661404 -0.00604712
0.00736993 0.00359048 0.00793685
-0.00472431 0.0228657 0.0149288
-0.00774788 0.0421409 0.034771
-0.0107714 0.0041574 -0.0175745
0.0179524 -0.0162516 0.0103935
0.0270231 -0.0215429 0.0211649
0.00453534 -0.0062361 0.00283459
-0.0289128 0.0160627 -0.0285349
-0.0355268 0.0196532 -0.0377945
0.0202201 -0.0153068 0.0192752
-0.00264562 -0.00869274 -0.0171965
-0.0109604 0.00472431 -0.00774788
-0.0113384 0.0153068 0.00566918
-0.00321253 0.0122832 0.0096376
0.00529123 -0.00566918 -0.00113384
0.00529123 -0.0156847 -0.0145509
-0.00377945 0.0298577 0.0258892
0.00359048 -0.0041574 0.00434637
0.0428968 0.00113384 0.0508336
-0.0289128 -0.00774788 -0.0102045
-0.0179524 -0.00661404 -0.0115273
0.000944863 -0.00774788 -0.00472431
0.0120942 -0.0075589 -0.0041574
-0.0266451 -0.00491329 -0.0192752
-0.0200311 -0.00566918 -0.0162516
-0.00321253 -0.00812582 -0.00453534
0.00718096 -0.00944863 0.00132281
0.027779 -0.0103935 0.00132281
-0.0394953 -0.00907068 -0.0119053
0.068786 -0.00170075 0.0676522
-0.0122832 -0.00453534 -0.0389284
0.000944863 0.00302356 -0.00472431
0.034582 -0.0285349 0.0236216
0.0517785 -0.0376055 0.0438416
-0.048566 0.0296687 -0.0444086
-0.0587705 0.034204 -0.0583925
-0.0173855 0.00812582 -0.0105825
-0.0177634 0.027401 0.0132281
0.0117163 -0.0102045 0.00132281
0.0113384 -0.0266451 -0.0219208
-0.00113384 0.0461093 0.0447865
-0.0200311 0.0417629 0.0128501
0.00850377 0.0175745 0.0325033
0.0268341 -0.0188973 0.0266451
-0.00472431 -0.0192752 -0.0364717
-0.020409 0.0317474 0.0151178
-0.0381725 -0.00321253 -0.0268341
-0.0268341 -0.00453534 -0.0219208
0.000944863 -0.00907068 -0.000377945
0.020409 -0.0113384 0.0102045
0.0423299 0.000377945 0.0651955
Vibration 9
-0.0196532 0.00340151 0.00699199
-0.0190862 -0.00774788 0.0128501
-0.0100155 -0.013606 0.0103935
-0.00132281 -0.00850377 0.00680301
-0.00113384 0.00321253 0.00302356
-0.0103935 0.00831479 0.00491329
0.0115273 0.0096376 -0.00982658
-0.0096376 0.0187083 0.000944863
-0.00925966 0.0270231 -0.00245664
-0.0239995 0.00566918 -0.00226767
-0.0141729 0.00888171 -0.00283459
-0.00396842 0.00340151 -0.00604712
-0.00377945 -0.0062361 -0.00812582
-0.0202201 -0.00585815 -0.0134171
-0.0304246 0.000188973 -0.0105825
0.0143619 -0.0151178 -0.00585815
-0.0100155 -0.0168186 0.00453534
-0.00188973 -0.00132281 0.00453534
-0.00170075 0.020409 0.00151178
-0.0100155 0.0249444 -0.00188973
-0.0181414 -0.000944863 -0.00566918
-0.0179524 -0.0219208 -0.00245664
-0.0107714 0.0610381 -0.00321253
0.034393 -0.0385504 0.00812582
0.00188973 0.0294797 -0.0268341
0.0451645 -0.00396842 0.0243775
0.0175745 -0.0151178 0.00661404
0.020409 -0.0188973 0.00661404
0.0134171 -0.0185193 0.0062361
-0.0107714 -0.0147399 -0.0119053
-0.0166296 -0.0145509 -0.0171965
0.00434637 -0.0168186 -0.00264562
0.0224877 -0.0192752 0.0075589
0.0126612 -0.020976 0.00585815
0.0710537 0.00377945 0.041385
-0.0183303 0.0410071 -0.0268341
-0.0264562 -0.0119053 0.0162516
0.0241885 0.00151178 -0.00850377
-0.0128501 0.0151178 0
0.00529123 0.00510226 -0.00548021
-0.0243775 -0.0107714 -0.0187083
-0.0425188 -0.000377945 -0.013606
0.00510226 -0.00472431 0.00774788
0.00434637 0.0355268 0.00283459
-0.0243775 -0.00245664 -0.0100155
-0.0245664 -0.0394953 -0.00434637
0.0096376 0.103368 0.0374166
-0.0340151 0.0912738 -0.0519675
-0.00907068 0.020976 0.00151178
0.0572587 -0.048377 0.0168186
0.0145509 -0.0612271 0.0141729
0.0470542 -0.0230547 0.0041574
-0.0255113 -0.0143619 -0.0226767
-0.0364717 -0.0126612 -0.0323143
0.00434637 -0.0168186 -0.000188973
0.0372276 -0.0224877 0.0173855
0.0149288 0.0336371 -0.0394953
Vibration 10
-0.00321253 0.000188973 0.000566918
-0.00302356 -0.00170075 0.000566918
-0.00151178 -0.00283459 0.000188973
0 -0.00188973 0.000944863
0.000188973 0.000188973 0.00151178
-0.00151178 0.00113384 0.00113384
0.00245664 0.00113384 0.00113384
-0.00151178 0.00321253 0.00075589
-0.00132281 0.00510226 0.000377945
-0.0041574 0.00075589 -0.00075589
-0.00226767 0.000566918 -0.000188973
-0.000377945 -0.000377945 0
-0.000566918 -0.00151178 -0.000188973
-0.00377945 -0.000566918 -0.0020787
-0.00548021 0.000377945 -0.00226767
0.00283459 -0.00321253 0.000944863
-0.00151178 -0.00283459 -0.00245664
0.00113384 0.0020787 -0.00151178
0.000188973 0.0075589 -0.00340151
-0.00151178 0.00869274 -0.00566918
-0.00321253 0.00113384 -0.00548021
-0.0041574 -0.00491329 -0.00396842
-0.00170075 0.00548021 0.00925966
0.00661404 -0.00699199 0.00396842
0.000944863 0.00359048 -0.00132281
0.00302356 0.00151178 0.00548021
-0.000188973 -0.00113384 -0.000188973
0.00472431 -0.00396842 0.00075589
0.00377945 -0.00434637 0.00113384
-0.00736993 0.000944863 -0.00718096
-0.00472431 0.000188973 -0.00831479
0.00510226 -0.00321253 -0.00245664
0.00944863 -0.00529123 0.00170075
0.00472431 -0.00566918 0.00151178
0.0062361 0.00340151 0.0100155
-0.00245664 0.00472431 -0.00226767
-0.00434637 -0.00245664 0.000188973
0.00491329 0.000188973 0.00283459
-0.00188973 0.00113384 0.000377945
0.00132281 -0.000566918 0.00075589
-0.00472431 -0.000944863 -0.00302356
-0.00793685 0.000944863 -0.00321253
0.00245664 0.00283459 -0.000566918
0.00453534 0.0119053 -0.00453534
-0.00736993 0.000566918 -0.00831479
-0.00566918 -0.00982658 -0.00472431
-0.0134171 -0.303868 -0.38078
-0.00434637 -0.201256 0.48377
0.0122832 0.499644 -0.034393
0.0111494 -0.00925966 0.00642507
0.00283459 -0.0115273 0.00434637
0.00907068 -0.00302356 0.00321253
-0.0143619 0.00302356 -0.0113384
-0.0096376 0.0020787 -0.013984
0.00831479 -0.00396842 -0.00132281
0.0164406 -0.00812582 0.00566918
0.00340151 0.00434637 -0.0020787
Vibration 11
0.00302356 -0.00075589 -0.00793685
0.00283459 0.00529123 -0.0149288
-0.00264562 0.00888171 -0.013606
-0.00699199 0.00566918 -0.00774788
-0.00680301 -0.00075589 -0.000944863
-0.00226767 -0.00340151 -0.00226767
-0.0102045 -0.00321253 0.0105825
-0.00283459 -0.0113384 0.00245664
-0.00340151 -0.0194642 0.00604712
0.0075589 -0.00321253 -0.00226767
0.00585815 -0.00604712 0
0.00491329 -0.00585815 0.0041574
0.00529123 -0.0020787 0.00548021
0.0102045 -0.000944863 0.00585815
0.0115273 -0.00188973 0.0020787
0.000377945 0.000188973 0.00718096
-0.00264562 0.0111494 -0.0109604
-0.00888171 -0.0151178 -0.0158737
-0.00907068 -0.0239995 -0.0109604
-0.00283459 -0.0041574 -0.000377945
0.00340151 0.0272121 0.00585815
0.00340151 0.0334482 0.000188973
-0.00264562 -0.0168186 0.00321253
-0.0168186 0.0154958 -0.00680301
-0.0120942 -0.0151178 0.0113384
0.000377945 0.0164406 0.0211649
-0.0196532 0.00226767 -0.00718096
0.020409 -0.00680301 0.00529123
-0.0041574 0.00944863 -0.00548021
-0.0665184 0.0119053 -0.048377
-0.0243775 0.0062361 -0.0355268
0.0629279 -0.0149288 0.020976
0.0812582 -0.0215429 0.0355268
-0.0224877 0.0190862 -0.0117163
0.0213539 0.0253223 0.0410071
-0.00944863 -0.0224877 0.00340151
0.00699199 0.00793685 -0.020598
-0.0119053 0.000944863 0.0179524
0.00434637 -0.00831479 -0.00188973
0.00302356 -0.00774788 0.00566918
0.0128501 0.000566918 0.00888171
0.0149288 -0.000944863 0.00226767
-0.0141729 -0.0285349 -0.0236216
-0.013984 -0.0470542 -0.0153068
0.00831479 0.0451645 0.0151178
0.00850377 0.0536682 0.00396842
-0.0103935 -0.00869274 0.0188973
0.00453534 -0.0120942 -0.013795
-0.00188973 -0.0393063 0.00585815
-0.0262672 0.0194642 -0.0102045
-0.00585815 0.0270231 -0.0183303
-0.0309915 0.0107714 -0.00170075
-0.131147 0.0238105 -0.0912738
-0.0542351 0.0171965 -0.0685971
0.10847 -0.0257003 0.0500777
0.140029 -0.0402512 0.0725655
-0.0166296 -0.0168186 0.0202201
Vibration 12
-0.00075589 -0.00604712 0.0283459
-0.000566918 -0.00642507 0.0610381
0.00075589 -0.00642507 0.0396842
-0.000566918 -0.00548021 0.0062361
0.00113384 -0.00661404 -0.0160627
0.000944863 -0.00604712 -0.0111494
-0.00831479 -0.00718096 -0.0394953
0.00529123 0.00529123 -0.048188
0.0102045 0.0241885 -0.0805023
-0.00472431 -0.0041574 0.020598
-0.00888171 0.00736993 0.00812582
-0.0149288 0.0111494 -0.00774788
-0.013795 0.00170075 -0.00869274
-0.0102045 -0.00907068 0.00245664
-0.00680301 -0.0103935 0.0160627
-0.0179524 0.00566918 -0.0260782
0.000188973 -0.00245664 0.0319364
0.0177634 -0.0115273 0.0181414
0.0183303 -0.0100155 -0.00340151
0.00075589 0.00283459 -0.0100155
-0.0171965 0.0166296 0.00491329
-0.0170075 0.0128501 0.0258892
0.00113384 0.00151178 -0.0360938
0.0236216 -0.0302356 0.00812582
0.0336371 -0.00396842 0.00888171
-0.0111494 0.00377945 0
-0.00944863 0.00283459 -0.00283459
-0.00321253 0.00075589 -0.00113384
-0.0162516 0.00736993 -0.00529123
-0.0143619 0.00548021 -0.00888171
-0.0041574 0.00396842 -0.00604712
0.0111494 -0.00113384 0.00340151
0.0105825 -0.00226767 0.00472431
-0.0406291 0.0151178 -0.013795
-0.00925966 0.00434637 0.000944863
0.0844708 -0.00245664 0.0523454
-0.00170075 -0.00699199 0.0946753
-0.0291018 -0.0126612 -0.0844708
-0.00718096 0.0134171 0.0115273
-0.0196532 0.020409 -0.0183303
-0.0109604 -0.0156847 0
-0.00604712 -0.0166296 0.0222988
0.0311805 -0.0187083 0.0241885
0.0325033 -0.0190862 -0.0147399
-0.0311805 0.0289128 0.000377945
-0.0308025 0.020409 0.0364717
0.0117163 -0.0020787 -0.047999
0.00944863 -0.000944863 -0.0376055
-0.0168186 0.00642507 -0.0445975
0.027401 -0.0287238 0
0.00831479 -0.0428968 0.0542351
0.0640617 -0.0438416 -0.0075589
-0.0260782 0.00831479 -0.0162516
-0.00718096 0.00642507 -0.0109604
0.0221098 -0.00359048 0.00925966
0.020598 -0.00661404 0.0105825
0.013606 -0.0100155 0.00075589
Vibration 13
-0.00340151 0.00396842 -0.013606
-0.00359048 0.00869274 -0.00907068
-0.00850377 0.0113384 -0.0062361
-0.0130391 0.00831479 -0.0134171
-0.0122832 0.00359048 -0.0202201
-0.00831479 0.00113384 -0.0181414
-0.0183303 0.00226767 -0.0247554
-0.00869274 -0.00245664 -0.0151178
-0.00925966 -0.0041574 -0.0109604
0.00302356 0.000188973 -0.00718096
-0.00321253 0.00188973 -0.0103935
0.00245664 -0.00151178 -0.0020787
0.0141729 -0.00529123 0.00869274
0.0239995 -0.00812582 0.0145509
0.0181414 -0.00510226 0.00642507
0.0164406 -0.00718096 0.0154958
-0.00850377 0.0171965 0.00491329
-0.0143619 0.0702978 0.0260782
-0.0145509 0.0650066 0.0304246
-0.00944863 -0.00453534 0.0105825
-0.00396842 -0.0517785 -0.00774788
-0.00396842 -0.034771 -0.00888171
-0.00888171 -0.0334482 0.0100155
-0.0217318 0.0196532 -0.0179524
0.00377945 -0.000377945 0.00170075
0.0281569 -0.00661404 0.00170075
0.00831479 -0.0119053 -0.00359048
-0.00226767 -0.0020787 -0.0041574
-0.013606 0.00888171 -0.0119053
0.00302356 -0.0200311 0.00359048
0.00510226 -0.0185193 0.0156847
0.00680301 -0.0103935 0.0196532
0.000944863 -0.00188973 0.00850377
-0.0234326 0.0130391 -0.0153068
0.0440306 -0.00075589 0.0156847
0.0302356 -0.0020787 0.020787
-0.000188973 0.0105825 -0.00529123
-0.0279679 0.00113384 -0.0423299
-0.013606 0.00585815 -0.0196532
-0.00321253 -0.000566918 -0.00453534
0.0366607 -0.0134171 0.0257003
0.0255113 -0.00661404 0.0100155
-0.0170075 0.109415 0.0372276
-0.0187083 0.11036 0.0474321
0.000566918 -0.101667 -0.0217318
-0.00075589 -0.061794 -0.0196532
-0.0264562 -0.0442196 0.00850377
0.0111494 -0.0423299 0.0124722
-0.0102045 -0.0406291 0.0103935
-0.034771 0.0264562 -0.0260782
-0.0020787 0.0396842 -0.0453534
-0.05518 0.0120942 -0.00585815
-0.000377945 -0.027779 -0.0020787
0.00453534 -0.0232436 0.0213539
0.0113384 -0.0109604 0.0309915
-0.000944863 0.00529123 0.0096376
-0.00680301 -0.00359048 0.00226767
Vibration 14
0.0096376 -0.0166296 -0.0306136
0.0096376 -0.00888171 -0.034771
0.00434637 -0.00510226 -0.00982658
-0.000944863 -0.00869274 0.00302356
-0.00075589 -0.0154958 -0.0171965
0.00472431 -0.0183303 -0.0160627
-0.00699199 -0.0153068 -0.0449755
0.00188973 -0.0232436 0.00888171
-0.00226767 -0.0283459 0.0374166
0.00699199 -0.0154958 -0.0298577
0.00850377 -0.0326923 -0.0122832
-0.00529123 -0.0258892 -0.00453534
-0.020598 -0.00264562 -0.0141729
-0.0241885 0.0154958 -0.0323143
-0.0096376 0.00642507 -0.0394953
-0.0355268 0.00359048 -0.00359048
0.00434637 0.00359048 -0.00302356
0.00377945 0.00736993 -0.00170075
0.00396842 0.00472431 -0.00264562
0.0041574 -0.000377945 -0.0041574
0.00434637 0.00529123 -0.00245664
0.00453534 0.00774788 -0.00170075
0.00453534 -0.0126612 -0.00831479
0.00944863 -0.00396842 0.0453534
0.00793685 0.0020787 -0.0330702
-0.000188973 0.0221098 0.0393063
-0.00151178 0.0166296 0.0253223
-0.0147399 0.00491329 0.0170075
-0.0145509 0.00245664 0.0187083
0.0168186 0.0255113 0.0279679
0.0213539 0.0228657 0.0192752
0.00396842 0.0124722 0.00264562
-0.0153068 0.00491329 0.0020787
-0.0175745 0.0111494 0.0168186
0.00585815 0.0311805 0.0638727
0.0292908 0.0141729 0.00151178
0.0147399 -0.00585815 -0.0525344
-0.0156847 -0.0226767 -0.0763449
0.020976 -0.0525344 -0.00510226
-0.00283459 -0.0385504 0.00869274
-0.0389284 0.0368497 -0.041385
-0.0113384 0.0179524 -0.0508336
0.00321253 0.0122832 -0.000377945
0.00396842 0.00548021 -0.00226767
0.00453534 0.00642507 -0.0020787
0.00434637 0.0124722 0
-0.000566918 -0.0164406 -0.00944863
0.0141729 -0.0158737 -0.0096376
0.00075589 -0.0168186 -0.0096376
0.0143619 -0.0147399 0.0719986
-0.0075589 -0.0211649 0.0693529
0.0521564 0.0177634 0.0304246
0.0264562 0.0332592 0.0381725
0.0370386 0.0279679 0.0228657
0.00604712 0.0111494 -0.00982658
-0.0291018 -0.00151178 -0.0102045
-0.00283459 -0.000377945 -0.0585815
Vibration 15
-0.0102045 -0.00188973 -0.0141729
-0.0102045 -0.00680301 -0.0145509
-0.00529123 -0.0096376 -0.00491329
-0.000566918 -0.00736993 0.00472431
-0.000377945 -0.00264562 -0.0075589
-0.00529123 0.000566918 -0.0130391
0.0041574 0.00075589 -0.0171965
-0.00434637 0.0096376 -0.0183303
-0.00359048 0.0198421 -0.0238105
-0.00718096 -0.0041574 -0.00982658
-0.020787 0.00226767 -0.0202201
-0.00548021 -0.00680301 -0.00529123
0.0217318 -0.020598 0.0181414
0.0357158 -0.0268341 0.0281569
0.020409 -0.0179524 0.013795
0.0385504 -0.0309915 0.0353379
-0.00585815 -0.0149288 -0.0075589
-0.00472431 -0.034204 -0.0147399
-0.00472431 -0.0287238 -0.0156847
-0.00699199 0.00132281 -0.00699199
-0.00850377 0.0151178 -0.00170075
-0.00812582 0.00472431 -0.00264562
-0.00736993 0.0230547 -0.00340151
-0.0432747 0.0190862 -0.0393063
0.0158737 0.0124722 -0.00699199
-0.00831479 0.0128501 0.0245664
-0.000944863 0.0117163 0.0181414