[Molden Format]
[FREQ]
-1255.5
12.8
15.6
22.9
25.5
28.3
31.9
40.6
48.3
58.6
59.6
74.1
84.0
104.4
110.5
111.8
132.9
146.9
167.4
174.9
182.2
208.8
217.4
223.4
239.4
244.0
256.8
271.0
291.5
306.8
313.8
334.8
349.0
355.7
358.7
364.1
380.1
403.8
414.6
442.7
483.5
492.6
504.8
509.7
523.6
543.4
549.5
558.1
570.9
583.5
594.2
612.1
616.2
632.8
650.6
658.4
660.7
686.9
707.6
716.0
725.7
765.8
773.5
781.0
808.5
827.6
830.7
846.3
875.2
880.5
882.4
895.8
900.5
904.8
943.4
945.9
958.1
974.1
1006.6
1007.9
1008.6
1011.7
1015.3
1016.9
1032.2
1034.8
1047.5
1071.1
1078.1
1080.6
1108.6
1126.5
1128.5
1133.5
1158.5
1179.5
1180.2
1182.6
1191.4
1213.3
1227.7
1243.2
1247.5
1261.2
1269.1
1275.2
1276.9
1284.1
1287.5
1297.2
1301.8
1304.1
1316.5
1324.5
1332.8
1338.4
1348.5
1351.9
1365.3
1381.1
1393.6
1406.8
1427.6
1438.5
1499.1
1521.2
1522.7
1528.3
1540.7
1557.5
1573.6
1600.1
1607.9
1645.3
1683.8
1701.1
1702.0
1708.5
1710.8
1719.3
1720.3
1882.2
1923.9
2147.6
2448.5
2651.9
2654.9
2668.1
2674.5
2743.7
2745.3
2746.5
2747.5
2747.8
2748.3
2750.3
2753.3
2761.6
2764.0
2764.8
2766.5
2767.4
2768.3
2771.4
2780.2
       
[FR-COORD]
C -2.17394 -3.43174 0.101289
C 0.461093 -3.43174 0.101289
C 1.74989 -1.1104 0.101289
N 0.535359 1.11607 0.0907068
C -2.05262 1.14555 0.0302356
C -3.4907 -1.12741 0.0799354
N -3.15452 3.46292 -0.226767
C -6.15125 -0.992106 0.102801
N -8.33445 -0.824865 0.163083
C -3.5336 -5.84643 0.123021
C -3.09669 -7.60218 -1.81263
C -4.36659 -9.89045 -1.82944
C -6.08076 -10.4165 0.130958
C -6.52692 -8.69822 2.07983
C -5.24153 -6.40201 2.05357
O -7.1819 -12.7216 -0.108281
C 4.53081 -0.966406 0.0922186
C 5.93298 -2.23403 1.93262
C 8.55403 -2.0375 1.93943
C 9.78519 -0.587327 0.10488
C 8.37508 0.664806 -1.74176
C 5.75138 0.48566 -1.74271
C 12.5963 -0.400244 0.127368
C -9.04291 -13.3915 1.7085
C -1.89086 5.68713 0.44144
C 0.561438 5.66445 2.05753
C 2.55548 6.6645 0.387205
C 1.46681 7.75959 -1.78995
C -1.33547 7.56854 -1.73193
C 5.14176 6.56264 0.703923
C 6.66884 7.58763 -1.20659
C 5.60134 8.6712 -3.3503
C 2.96952 8.77022 -3.66588
O -2.84442 8.6249 -3.02432
O 0.59772 5.15139 4.25774
O -4.11866 6.64258 1.95246
H 1.51008 -5.19467 0.107525
H -5.34509 4.77194 1.31865
H -1.7616 -7.14997 -3.31911
H -4.07085 -11.2724 -3.31968
H -7.85087 -9.10697 3.58878
H -5.57734 -5.03007 3.55628
H 4.97206 -3.35502 3.36919
H 9.65007 -3.01449 3.37713
H 9.3207 1.78258 -3.18211
H 4.63777 1.48343 -3.16321
H 13.3192 0.089384 2.01275
H 13.3199 1.02914 -1.19053
H 13.4669 -2.21249 -0.407614
H -9.64573 -15.2646 1.04653
H -10.6303 -12.065 1.6656
H -8.21388 -13.5251 3.59785
H 5.97191 5.68524 2.37425
H 8.71655 7.51657 -1.00174
H 6.81889 9.4509 -4.81634
H 2.13766 9.60963 -5.35284
H -3.79438 6.48819 3.80666

[FR-NORM-COORD]
Vibration 1
0 0.00170075 0.000188973
0.000566918 -0.00132281 0
0.00151178 -0.00132281 0.00170075
0.00944863 -0.00566918 0.00226767
0.00453534 0.00359048 -0.00453534
0.000377945 -0.000944863 -0.000566918
0.0702978 -0.00793685 -0.0368497
0.000944863 -0.00453534 -0.00170075
0.00151178 0.00510226 0.00151178
0 -0.000188973 0.000188973
-0.000188973 0.000188973 0
-0.000188973 -0.000188973 0.000188973
0.000377945 0.000566918 0
-0.000188973 -0.000377945 0
0.000188973 0 0
-0.000188973 -0.000566918 0
0.00113384 -0.00075589 -0.000188973
0.000377945 0 0.000188973
0.000377945 0.000188973 0
-0.000188973 0 0
0.000188973 0.000188973 0
0.000188973 -0.000188973 0
0.000188973 0 0
0.000188973 0 -0.000188973
0.0255113 -0.0833369 -0.0578256
-0.00302356 -0.00113384 -0.000377945
-0.000944863 0.000377945 0.00113384
-0.00188973 -0.000188973 0.000944863
-0.0041574 0.00132281 0.00283459
-0.000566918 -0.000188973 0.000188973
-0.000188973 0 0
-0.000377945 0 0.000188973
-0.000944863 -0.000566918 0.000188973
-0.00132281 0.00132281 0.000566918
-0.00188973 0.00151178 0.000944863
-0.0580146 -0.000377945 0.0190862
-0.00075589 -0.000188973 -0.00226767
-0.385882 1.18599 0.770252
-0.000566918 0.00113384 0
-0.000188973 0.000188973 0.000566918
0.000188973 0 -0.00075589
0 0.000566918 -0.00132281
-0.00075589 -0.000566918 -0.00113384
0.000188973 0 -0.000566918
-0.000188973 -0.00075589 -0.000188973
-0.000944863 -0.0020787 0.000188973
-0.000188973 -0.000188973 -0.000188973
-0.000377945 -0.000377945 0
-0.000377945 0 -0.000188973
-0.000188973 0.000188973 0.000566918
0.000377945 0.000377945 0
0 0.000377945 -0.000188973
-0.000377945 -0.00226767 -0.000188973
0.000377945 -0.00113384 -0.000188973
-0.000377945 -0.000377945 -0.00075589
-0.000566918 -0.00151178 -0.00075589
-0.0523454 -0.061794 0.0532903
Vibration 2
-0.00321253 0.00359048 0.00226767
-0.00302356 0.00529123 0.00245664
-0.00566918 0.0062361 0.0020787
-0.00680301 0.00510226 0.00472431
-0.00718096 0.00377945 0.00642507
-0.00510226 0.00264562 0.0041574
-0.00604712 0.00453534 0.0103935
-0.00529123 0.000188973 0.00377945
-0.00548021 -0.0020787 0.00340151
-0.00132281 0.00245664 -0.00113384
0.00151178 0.00529123 -0.00302356
0.00359048 0.0041574 -0.00699199
0.00283459 0.000188973 -0.00869274
-0.000188973 -0.00283459 -0.00680301
-0.0020787 -0.00151178 -0.00302356
0.00491329 -0.000566918 -0.0124722
-0.00548021 0.0105825 -0.00188973
-0.00491329 0.0816362 0.0461093
-0.00529123 0.0908958 0.0427078
-0.00774788 0.0279679 -0.00831479
-0.00925966 -0.0444086 -0.0565028
-0.00869274 -0.0525344 -0.0534792
-0.00831479 0.0377945 -0.0128501
0.00434637 -0.00472431 -0.0145509
0.000377945 0.00188973 0.00869274
0.00113384 -0.00680301 0.00812582
0.00510226 -0.0190862 0.00585815
0.00925966 -0.0171965 0.00472431
0.00831479 -0.00226767 0.00718096
0.00472431 -0.0338261 0.00377945
0.00888171 -0.0474321 -0.000188973
0.0132281 -0.0457314 -0.00151178
0.0134171 -0.0302356 0.00113384
0.0124722 0.00491329 0.00793685
-0.00132281 -0.00396842 0.00907068
0.00396842 0.00907068 0.00850377
-0.00113384 0.00642507 0.00321253
-0.00132281 0.0117163 0.0117163
0.00226767 0.00831479 -0.00151178
0.00585815 0.00642507 -0.00850377
-0.00075589 -0.00585815 -0.00831479
-0.00434637 -0.00377945 -0.00151178
-0.00377945 0.130769 0.0850377
-0.00453534 0.146832 0.0801244
-0.0105825 -0.0942973 -0.0961871
-0.0096376 -0.107903 -0.0910848
-0.00529123 0.0504557 -0.0175745
-0.0154958 0.0326923 -0.0224877
-0.00434637 0.0372276 -0.00491329
0.00661404 -0.00434637 -0.0173855
0.00321253 -0.00604712 -0.013795
0.00340151 -0.00642507 -0.0143619
0.00113384 -0.0351489 0.00472431
0.00869274 -0.0604712 -0.00264562
0.0164406 -0.0568808 -0.00472431
0.0170075 -0.0287238 0.000188973
0.00529123 0.00907068 0.00850377
Vibration 3
-0.0020787 0.000188973 -0.0115273
-0.0020787 0.000566918 -0.0130391
-0.00245664 0.00075589 -0.0173855
-0.00302356 0.000566918 -0.0183303
-0.00302356 0 -0.0192752
-0.00264562 -0.000188973 -0.0171965
-0.0020787 0 -0.0213539
-0.00264562 -0.000377945 -0.0194642
-0.00264562 0.000566918 -0.0219208
-0.00151178 -0.000188973 -0.00151178
-0.0020787 -0.00869274 0.00604712
-0.000188973 -0.00982658 0.0181414
0.00245664 -0.00226767 0.0224877
0.00264562 0.00661404 0.0145509
0.000566918 0.0075589 0.00245664
0.00491329 -0.00472431 0.034771
-0.00264562 0.00245664 -0.0221098
0.00226767 -0.000944863 -0.0281569
0.00226767 0.000944863 -0.0334482
-0.00283459 0.0062361 -0.0326923
-0.00774788 0.0100155 -0.0264562
-0.0075589 0.00793685 -0.0211649
-0.00283459 0.00831479 -0.0383614
0.00925966 0.000944863 0.041574
-0.00661404 -0.000377945 -0.0122832
-0.0219208 -0.00245664 0.0111494
-0.00548021 -0.0020787 0.0315584
0.0162516 -0.00132281 0.020976
0.0156847 -0.000944863 -0.00699199
-0.00869274 -0.00321253 0.0570697
0.0105825 -0.00377945 0.0721875
0.0321253 -0.00283459 0.061983
0.0353379 -0.00151178 0.0360938
0.0289128 -0.00113384 -0.0226767
-0.0430858 -0.00699199 0.0103935
-0.0198421 0.00151178 -0.0325033
-0.00188973 0.00075589 -0.0105825
-0.0147399 0.00151178 -0.0404401
-0.00396842 -0.0145509 0.00264562
-0.000377945 -0.0166296 0.0241885
0.0041574 0.0126612 0.0177634
0.00075589 0.0143619 -0.00359048
0.00642507 -0.00529123 -0.0289128
0.00604712 -0.00188973 -0.0383614
-0.0117163 0.0143619 -0.0255113
-0.0113384 0.0107714 -0.0162516
0.000377945 0.00831479 -0.0396842
-0.00661404 0.00907068 -0.0394953
-0.00264562 0.00907068 -0.0404401
0.0117163 -0.00359048 0.0521564
0.00680301 -0.0020787 0.0374166
0.0126612 0.0122832 0.0408181
-0.0255113 -0.00396842 0.0650066
0.00869274 -0.00548021 0.0920297
0.0468652 -0.00321253 0.0740773
0.0523454 -0.000944863 0.0279679
-0.0360938 0.00264562 -0.0294797
Vibration 4
0.00075589 0.00340151 0.0168186
0.000566918 0.00491329 0.0096376
-0.000566918 0.00566918 0.0128501
-0.00188973 0.00510226 0.0183303
-0.00226767 0.00340151 0.0224877
-0.000944863 0.00245664 0.0281569
-0.00377945 0.000944863 0.0158737
-0.00075589 0.000944863 0.0449755
-0.000377945 0.000566918 0.0604712
0.00188973 0.00264562 0.00680301
-0.013795 0.0226767 -0.0149288
-0.0141729 0.0230547 -0.0285349
0.00170075 0.00321253 -0.0200311
0.0181414 -0.0171965 0.00170075
0.0179524 -0.0168186 0.0151178
-0.00132281 0.00604712 -0.0357158
-0.00075589 0.00680301 0.00661404
0.00566918 -0.0130391 -0.0119053
0.00566918 -0.0134171 -0.0188973
-0.000377945 0.00604712 -0.00774788
-0.00661404 0.0262672 0.0107714
-0.00661404 0.0262672 0.0179524
-0.000377945 0.00548021 -0.0149288
0.0130391 -0.0124722 -0.0281569
-0.00604712 0.00793685 -0.00302356
-0.0132281 0.0243775 0.00793685
-0.00472431 0.00226767 0.00510226
0.0062361 -0.0234326 -0.0134171
0.00566918 -0.0179524 -0.0226767
-0.0062361 0.00188973 0.0173855
0.00359048 -0.0258892 0.0102045
0.0145509 -0.0521564 -0.00831479
0.0160627 -0.0508336 -0.020409
0.0126612 -0.0311805 -0.041574
-0.0232436 0.0476211 0.013606
-0.0122832 0.0245664 -0.0236216
0.00132281 0.00529123 0.000377945
-0.0096376 0.0175745 -0.00604712
-0.0257003 0.0381725 -0.020976
-0.0268341 0.0385504 -0.0453534
0.0308025 -0.0330702 0.00850377
0.0302356 -0.0321253 0.0315584
0.0105825 -0.0283459 -0.020598
0.0105825 -0.0291018 -0.0334482
-0.0117163 0.0417629 0.0196532
-0.0115273 0.041574 0.0325033
0.00396842 0.00396842 -0.0160627
-0.00340151 0.00661404 -0.0154958
-0.00151178 0.00604712 -0.0185193
0.00566918 -0.00453534 -0.0442196
0.013795 -0.0105825 0
0.0283459 -0.034582 -0.0364717
-0.0147399 0.0219208 0.0321253
0.00264562 -0.0272121 0.0196532
0.0221098 -0.0740773 -0.013795
0.0245664 -0.0712427 -0.034771
-0.0194642 0.0438416 -0.020409
Vibration 5
0.00510226 -0.00188973 0.0198421
0.00548021 0.00113384 0.0241885
0.00396842 0.00188973 0.0175745
0.00226767 0.00113384 0.0147399
0.00245664 -0.00132281 0.013795
0.00377945 -0.00245664 0.0132281
0.000188973 -0.00302356 0.0100155
0.00377945 -0.00132281 0.00283459
0.00359048 0.00075589 -0.00661404
0.00774788 -0.00321253 0.0166296
0.0580146 -0.0258892 0.047999
0.0578256 -0.0257003 0.0402512
0.00491329 -0.00283459 0
-0.0438416 0.0183303 -0.0296687
-0.041196 0.0168186 -0.020787
0.00831479 -0.00377945 -0.00472431
0.00377945 0.00321253 0.00680301
0.013984 -0.00113384 -0.00377945
0.0141729 -0.00302356 -0.0192752
0.00434637 -0.000566918 -0.0239995
-0.00585815 0.00510226 -0.0122832
-0.00604712 0.00699199 0.00321253
0.00472431 -0.00396842 -0.041574
-0.0523454 0.0245664 -0.0563138
-0.00302356 0.000377945 0.00434637
-0.0041574 0.00869274 0.00604712
-0.00396842 0.00377945 0.00359048
-0.00340151 -0.00491329 -0.00113384
-0.00340151 -0.00642507 -0.00170075
-0.00396842 0.00642507 0.00510226
-0.00359048 -0.000377945 0.00170075
-0.00321253 -0.00925966 -0.00302356
-0.00321253 -0.0117163 -0.00453534
-0.00359048 -0.0117163 -0.00585815
-0.00510226 0.0168186 0.00793685
-0.00529123 0.00264562 -0.000566918
0.00736993 0.00226767 0.0309915
-0.00264562 -0.00075589 0.00434637
0.0969429 -0.0432747 0.0772898
0.0971319 -0.0425188 0.0636838
-0.0831479 0.0353379 -0.0595264
-0.0786126 0.0319364 -0.0427078
0.0219208 -0.00340151 -0.000377945
0.0221098 -0.00680301 -0.0279679
-0.013795 0.00793685 -0.0153068
-0.013795 0.0107714 0.0119053
0.0170075 -0.00529123 -0.0459203
-0.00170075 -0.00472431 -0.0459203
-0.000944863 -0.00510226 -0.0474321
-0.0391173 0.0194642 -0.0540462
-0.0453534 0.0308025 -0.121698
-0.112628 0.0427078 -0.0285349
-0.0041574 0.0134171 0.00888171
-0.00377945 0.00132281 0.00283459
-0.00302356 -0.0145509 -0.00566918
-0.00283459 -0.0187083 -0.00812582
-0.00642507 0.00850377 0.000188973
Vibration 6
-0.0190862 0.0179524 -0.00642507
-0.0188973 0.0151178 -0.00188973
-0.0156847 0.0130391 0.00396842
-0.0126612 0.0145509 0.00736993
-0.0126612 0.0177634 0.00377945
-0.0160627 0.0194642 -0.0041574
-0.00831479 0.0202201 0.00793685
-0.0158737 0.0232436 -0.0107714
-0.0158737 0.0260782 -0.0166296
-0.0141729 0.0151178 -0.0109604
0.0132281 0.00831479 0.000944863
0.0357158 -0.00396842 0.00642507
0.0302356 -0.00982658 0
-0.00377945 0.000188973 -0.0166296
-0.0258892 0.0126612 -0.0221098
0.0616051 -0.0260782 0.0115273
-0.0153068 0.0041574 0.00548021
-0.020598 -0.0105825 -0.000377945
-0.0194642 -0.027779 -0.00377945
-0.0128501 -0.0302356 -0.00132281
-0.00774788 -0.0132281 0.00642507
-0.00888171 0.00396842 0.00982658
-0.0115273 -0.0515895 -0.00680301
0.0712427 -0.0430858 0.0147399
-0.00151178 0.0168186 0.00774788
0.000944863 0.00869274 0.00434637
0.00245664 -0.00283459 -0.00075589
0.00340151 0.000188973 0.000377945
0.00245664 0.0151178 0.00736993
0.00264562 -0.0166296 -0.00661404
0.00377945 -0.0285349 -0.0120942
0.00472431 -0.0257003 -0.0111494
0.00453534 -0.0109604 -0.00472431
0.00472431 0.0241885 0.0122832
0.00151178 0.0128501 0.00529123
0.00340151 0.0222988 0.0105825
-0.020976 0.013984 -0.00321253
-0.00264562 0.0260782 0.0117163
0.0183303 0.0122832 0.00661404
0.0589595 -0.0102045 0.0168186
-0.0120942 -0.0020787 -0.0245664
-0.0510226 0.0194642 -0.0340151
-0.0258892 -0.00925966 -0.00283459
-0.0236216 -0.0398732 -0.00888171
-0.00264562 -0.013984 0.00907068
-0.00472431 0.0164406 0.0153068
-0.0041574 -0.0580146 -0.00793685
-0.00302356 -0.0565028 -0.00736993
-0.0262672 -0.0580146 -0.00944863
0.105636 -0.0599043 0.0306136
0.0476211 -0.0718096 0.000188973
0.0702978 -0.0113384 0.0173855
0.00188973 -0.0188973 -0.00736993
0.00396842 -0.0398732 -0.0170075
0.00566918 -0.0351489 -0.0154958
0.00529123 -0.00869274 -0.00396842
0.00566918 0.020598 0.0102045
Vibration 7
-0.0041574 -0.00075589 -0.0113384
-0.00377945 -0.000377945 -0.0134171
-0.00434637 -0.000188973 -0.0102045
-0.0062361 -0.000944863 -0.00453534
-0.00604712 -0.00075589 -0.00377945
-0.00529123 -0.00113384 -0.00982658
-0.00359048 0.00170075 0.00548021
-0.00529123 -0.0020787 -0.0147399
-0.00566918 -0.00359048 -0.0202201
-0.00396842 -0.00075589 -0.00680301
0.00151178 -0.0096376 0.00245664
0.00132281 -0.00982658 0.00944863
-0.00453534 -0.00075589 0.00661404
-0.0102045 0.00831479 -0.00264562
-0.0096376 0.00774788 -0.00925966
-0.00396842 -0.00170075 0.0143619
-0.00491329 0.00793685 -0.00888171
0.000944863 -0.0158737 -0.0296687
-0.00075589 0.00472431 -0.0196532
-0.0075589 0.0491329 0.0109604
-0.0124722 0.068786 0.0281569
-0.0109604 0.0474321 0.0181414
-0.0096376 0.0780457 0.0270231
-0.0103935 0.00774788 0.0113384
0.00604712 -0.0041574 0.00888171
0.0111494 -0.0188973 0.00132281
0.0109604 -0.0270231 -0.00396842
0.00925966 -0.0185193 0.00113384
0.00812582 -0.000944863 0.0122832
0.0115273 -0.0427078 -0.013795
0.0105825 -0.0517785 -0.0192752
0.00907068 -0.0445975 -0.0149288
0.00831479 -0.027401 -0.00434637
0.00944863 0.0132281 0.0226767
0.0151178 -0.0217318 0.000566918
0.0143619 -0.00132281 0.0187083
-0.00377945 -0.000188973 -0.0164406
0.00604712 0.00472431 0.0177634
0.00566918 -0.0166296 0.0041574
0.00566918 -0.0166296 0.0166296
-0.0147399 0.0154958 -0.00472431
-0.013795 0.0145509 -0.0162516
0.00642507 -0.0495108 -0.0521564
0.00359048 -0.0128501 -0.034771
-0.0177634 0.101478 0.0500777
-0.0151178 0.0633058 0.0323143
-0.0268341 0.0857936 0.0319364
-0.0162516 0.0856046 0.0315584
0.0132281 0.0874943 0.0326923
-0.00850377 0.00453534 0.0187083
-0.0100155 0.00774788 -0.00113384
-0.0171965 0.0171965 0.0149288
0.0124722 -0.048377 -0.0171965
0.0109604 -0.0646286 -0.0272121
0.00812582 -0.0523454 -0.0198421
0.00718096 -0.0211649 -0.00075589
0.020409 -0.00831479 0.0171965
Vibration 8
-0.0173855 -0.00283459 -0.00396842
-0.0168186 -0.00812582 -0.0239995
-0.0109604 -0.0115273 -0.0262672
-0.00566918 -0.00869274 -0.0239995
-0.00585815 -0.00283459 -0.00604712
-0.0115273 0.000944863 0.0154958
0.00132281 0.000566918 -0.00736993
-0.0103935 0.0132281 0.0653845
-0.00793685 0.027401 0.114139
-0.0170075 -0.00283459 -0.00396842
0.00812582 -0.0128501 0.0100155
0.0187083 -0.0185193 0.0107714
0.00188973 -0.0149288 -0.00283459
-0.0270231 -0.00377945 -0.0192752
-0.0359048 0.00132281 -0.0194642
0.0179524 -0.0228657 0.00151178
-0.0109604 -0.0128501 -0.0221098
-0.0173855 -0.00585815 -0.0124722
-0.0185193 0.00736993 0.00566918
-0.0134171 0.0134171 0.013795
-0.00661404 0.00113384 0.000377945
-0.00566918 -0.0119053 -0.0177634
-0.0149288 0.034204 0.0381725
0.00642507 -0.0238105 -0.0105825
0.0128501 -0.00396842 -0.0143619
0.013984 -0.0124722 -0.0156847
0.013795 0.000944863 -0.0075589
0.0151178 0.00680301 -0.00491329
0.0158737 -0.00510226 -0.0143619
0.0134171 0.0128501 0.000377945
0.0143619 0.0332592 0.0120942
0.0154958 0.0404401 0.0151178
0.0160627 0.0264562 0.0062361
0.0171965 -0.0134171 -0.0230547
0.0153068 -0.0268341 -0.0188973
0.0192752 0.00812582 -0.0111494
-0.0202201 -0.0102045 -0.034771
0.0105825 0.0119053 -0.00548021
0.020787 -0.0160627 0.0202201
0.0402512 -0.0260782 0.0221098
-0.0419519 0.000377945 -0.0311805
-0.0572587 0.00793685 -0.0300466
-0.0217318 -0.00907068 -0.0177634
-0.0234326 0.0143619 0.0141729
-0.0020787 0.00340151 0.00491329
-0.000944863 -0.0198421 -0.0270231
-0.0357158 0.0455424 0.0432747
-0.013795 0.0353379 0.0402512
0.00340151 0.0389284 0.0517785
0.02759 -0.0336371 -0.00170075
-0.00359048 -0.0366607 -0.0359048
-0.0103935 -0.00245664 -0.00170075
0.0124722 0.0075589 -0.00188973
0.013984 0.0442196 0.0188973
0.0160627 0.0570697 0.0243775
0.0170075 0.0315584 0.00831479
0.0211649 0.00982658 -0.0115273
Vibration 9
0.0143619 0.0020787 -0.0294797
0.0141729 0.00548021 -0.0478101
0.0119053 0.00699199 -0.0385504
0.0109604 0.00661404 -0.0270231
0.0103935 0.00302356 -0.0162516
0.0130391 0.00132281 -0.0107714
0.000377945 -0.00113384 -0.0041574
0.0134171 0.00340151 0.0228657
0.0147399 0.00907068 0.0555579
0.0153068 0.00188973 -0.0188973
0.0166296 -0.0115273 -0.0062361
0.0124722 -0.0096376 0.0062361
0.00642507 0.00680301 0.00510226
0.00699199 0.0192752 -0.00566918
0.0120942 0.0158737 -0.0173855
-0.000188973 0.00869274 0.0173855
0.0122832 0.00302356 -0.0253223
-0.00566918 0.000944863 -0.0124722
-0.00529123 -0.00793685 0.00793685
0.013606 -0.0147399 0.0151178
0.0317474 -0.0130391 0.00245664
0.0308025 -0.00396842 -0.0177634
0.013984 -0.0241885 0.0381725
-0.0175745 0.0330702 0.00888171
-0.0170075 0.00510226 0.00661404
-0.0213539 0.013795 0.0128501
-0.0188973 0.00302356 0.0100155
-0.0166296 -0.00113384 0.00642507
-0.0173855 0.0107714 0.0113384
-0.0188973 -0.0117163 0.00548021
-0.0164406 -0.0328812 -0.00396842
-0.013984 -0.0379835 -0.0075589
-0.0141729 -0.0211649 -0.0020787
-0.0170075 0.0219208 0.0202201
-0.0264562 0.020409 0.0145509
-0.0283459 -0.013984 0.000188973
0.0168186 0.00680301 -0.0631168
-0.013795 -0.020976 -0.00831479
0.0202201 -0.0238105 -0.00661404
0.0134171 -0.0198421 0.0158737
0.00396842 0.0311805 -0.00510226
0.0132281 0.0249444 -0.0251334
-0.020598 0.00585815 -0.0185193
-0.0196532 -0.00925966 0.0179524
0.0466762 -0.0187083 0.00774788
0.0449755 -0.00226767 -0.02759
-0.00113384 -0.0124722 0.0410071
0.0306136 -0.0366607 0.0338261
0.0128501 -0.0311805 0.0597153
-0.0247554 0.0323143 0.0175745
-0.00888171 0.0428968 -0.0117163
-0.0317474 0.0410071 0.0154958
-0.020976 -0.00831479 0.00831479
-0.0164406 -0.0462983 -0.00850377
-0.0120942 -0.0555579 -0.0153068
-0.0120942 -0.0249444 -0.00491329
-0.0336371 -0.0162516 0.00113384
Vibration 10
-0.0020787 -0.00396842 -0.0103935
-0.00188973 -0.00831479 -0.0122832
0.00188973 -0.0105825 -0.00321253
0.00642507 -0.00774788 0.0107714
0.00642507 -0.00340151 0.0122832
0.00245664 -0.00170075 -0.00170075
0.0075589 -0.00283459 0.0236216
0.00264562 0.00434637 -0.0122832
0.00264562 0.0100155 -0.0239995
-0.00718096 -0.00132281 -0.0130391
-0.0062361 -0.00642507 -0.00793685
-0.00736993 -0.00585815 -0.00340151
-0.00925966 -0.000566918 -0.00377945
-0.013984 0.00661404 -0.0111494
-0.0130391 0.00585815 -0.0158737
-0.00699199 -0.00245664 0.00359048
0.00226767 -0.0124722 -0.00718096
0.00434637 -0.00907068 -0.0062361
0.00359048 -0.0020787 -0.00491329
0.00113384 0.000566918 -0.00491329
-0.000566918 -0.00661404 -0.00812582
-0.000377945 -0.0132281 -0.00925966
-0.000188973 0.0194642 0.0122832
0.0113384 -0.00869274 0.0200311
0.00548021 0.000377945 0.0149288
0.00566918 0.0171965 0.013984
0.00226767 0.013795 0.00793685
-0.00132281 -0.00434637 0.000377945
-0.000566918 -0.0120942 0.00226767
0.00245664 0.0266451 0.00925966
-0.000944863 0.0194642 0.00245664
-0.00453534 -0.00075589 -0.00585815
-0.00491329 -0.0128501 -0.00699199
-0.0041574 -0.027401 -0.00604712
0.00869274 0.0302356 0.0170075
0.00453534 0.00396842 0.0111494
-0.00453534 -0.0100155 -0.0202201
0.00604712 0.00075589 0.0181414
-0.00377945 -0.0113384 -0.00736993
-0.00566918 -0.0102045 0.00075589
-0.0181414 0.0126612 -0.0132281
-0.0158737 0.0107714 -0.020976
0.00604712 -0.0105825 -0.0062361
0.00585815 0.00283459 -0.00340151
-0.00302356 -0.00548021 -0.00888171
-0.00170075 -0.0175745 -0.0109604
-0.0455424 0.319364 -0.0472432
0.0166296 -0.180469 -0.19502
0.0266451 -0.0555579 0.312939
0.0200311 -0.0156847 0.0317474
0.00151178 -0.0202201 0.0258892
0.0257003 0.00472431 0.0147399
0.00566918 0.0417629 0.0156847
-0.00075589 0.0292908 0.00377945
-0.00718096 -0.00718096 -0.0115273
-0.00774788 -0.0283459 -0.0132281
0.00491329 0.0100155 0.0117163
Vibration 11
0.00188973 0.00566918 0.0179524
0.00151178 0.0105825 0.0222988
-0.00264562 0.0130391 0.00831479
-0.00793685 0.00982658 -0.0105825
-0.00812582 0.00472431 -0.0130391
-0.00340151 0.00264562 0.0041574
-0.00907068 0.0041574 -0.0287238
-0.00377945 -0.00510226 0.0124722
-0.0041574 -0.0130391 0.0221098
0.00831479 0.0020787 0.0198421
0.00661404 0.0111494 0.0111494
0.00869274 0.0103935 0.00302356
0.0120942 0.00075589 0.00359048
0.0185193 -0.0109604 0.0153068
0.0166296 -0.00944863 0.0234326
0.00982658 0.00302356 -0.00831479
-0.00302356 0.0143619 0.00907068
-0.00264562 0.00604712 0.00359048
-0.0020787 -0.00472431 -0.00377945
-0.00132281 -0.00736993 -0.00566918
-0.00151178 0.00566918 0.00377945
-0.00264562 0.0162516 0.0111494
-0.000377945 -0.020598 -0.00925966
-0.0128501 0.00812582 -0.0296687
-0.00642507 0.000188973 -0.0181414
-0.00680301 -0.020976 -0.0170075
-0.00245664 -0.0164406 -0.00925966
0.00170075 0.00736993 0.00075589
0.00075589 0.0162516 -0.00170075
-0.00302356 -0.0326923 -0.0113384
0.00132281 -0.0228657 -0.00245664
0.00566918 0.00396842 0.00888171
0.00604712 0.0192752 0.0105825
0.00529123 0.0357158 0.00869274
-0.0105825 -0.0372276 -0.020787
-0.00529123 -0.00453534 -0.0132281
0.00453534 0.0122832 0.034582
-0.00736993 -0.000188973 -0.0222988
0.00302356 0.0194642 0.0103935
0.0062361 0.0175745 -0.0041574
0.0245664 -0.020787 0.0179524
0.020598 -0.0175745 0.0317474
-0.00321253 0.00699199 0.0041574
-0.00151178 -0.0119053 -0.00907068
-0.00188973 0.00661404 0.00434637
-0.00264562 0.0249444 0.0171965
-0.0164406 0.179146 -0.0542351
0.0175745 -0.165162 -0.15628
-0.00188973 -0.0805023 0.192941
-0.0236216 0.0177634 -0.0470542
-0.000944863 0.0222988 -0.0349599
-0.0306136 -0.0113384 -0.0234326
-0.00680301 -0.0525344 -0.0198421
0.00113384 -0.0357158 -0.00453534
0.00888171 0.0130391 0.0164406
0.0096376 0.0396842 0.0188973
-0.00585815 -0.0117163 -0.013984
Vibration 12
0.00548021 -0.00604712 0.0217318
0.00604712 -0.0126612 0.0340151
0.0124722 -0.0162516 0.0188973
0.0177634 -0.0122832 -0.00170075
0.0194642 -0.00642507 -0.00982658
0.0130391 -0.00226767 0.00548021
0.0171965 -0.00869274 -0.0336371
0.013984 0.0132281 0.00888171
0.0156847 0.0336371 0.0166296
-0.00585815 0.000377945 0.0128501
0.0041574 0.000188973 0.0149288
-0.00736993 0.00699199 -0.00113384
-0.02759 0.0115273 -0.0171965
-0.0425188 0.013795 -0.0228657
-0.0317474 0.00831479 -0.00793685
-0.0353379 0.0173855 -0.0334482
0.0128501 -0.0166296 0.0124722
0.0249444 -0.0124722 0.00585815
0.0245664 -0.000566918 -0.00283459
0.0124722 0.00718096 -0.00472431
0.00075589 -0.000566918 -0.00113384
0.00188973 -0.0128501 0.00736993
0.0113384 0.0260782 -0.0113384
0.048377 -0.0400622 0.0309915
-0.00472431 -0.00302356 -0.0141729
-0.0117163 0.00302356 -0.00434637
-0.00831479 0.000944863 -0.00151178
-0.00585815 0.0111494 0.0020787
-0.00642507 0.0177634 0.00340151
-0.00850377 -0.0147399 -0.00604712
-0.00585815 -0.0196532 -0.00680301
-0.00340151 -0.00718096 -0.00170075
-0.00340151 0.00907068 0.00302356
-0.00661404 0.0394953 0.0213539
-0.0192752 0.00491329 -0.00396842
-0.0217318 -0.0294797 -0.0222988
0.00113384 -0.0154958 0.0508336
-0.00321253 -0.0355268 -0.0430858
0.0222988 -0.00510226 0.0292908
0.00075589 0.00736993 0
-0.0638727 0.0213539 -0.0394953
-0.0438416 0.0096376 -0.0119053
0.0353379 -0.0177634 0.00869274
0.0334482 0.00340151 -0.00699199
-0.00907068 0.00340151 -0.00453534
-0.00699199 -0.0177634 0.0105825
0.0126612 0.027401 -0.0120942
-0.00188973 0.0338261 -0.0102045
0.0224877 0.0332592 -0.0170075
0.0704868 -0.0508336 0.041196
0.0145509 -0.0784236 0.0956201
0.119053 -0.0311805 0.000566918
-0.0105825 -0.0238105 -0.00982658
-0.00604712 -0.0336371 -0.0111494
-0.00132281 -0.0102045 -0.00170075
-0.00113384 0.0187083 0.00680301
-0.0330702 -0.0336371 -0.0213539
Vibration 13
-0.013984 -0.00151178 0.013795
-0.0132281 -0.0158737 0.0168186
-0.000377945 -0.0238105 0
0.0122832 -0.0158737 -0.00850377
0.013795 -0.00170075 -0.00661404
0 0.00529123 0.000566918
0.0196532 0.00075589 -0.0145509
0.00113384 0.0260782 -0.00982658
0.00264562 0.0502667 -0.020976
-0.0164406 -0.00075589 0.0145509
-0.0243775 0.0126612 0
-0.00680301 0.00340151 0.000566918
0.0170075 -0.0196532 0.0153068
0.0226767 -0.0323143 0.027401
0.00529123 -0.0215429 0.0270231
0.0421409 -0.0325033 0.0192752
0 -0.034582 -0.0109604
0.00548021 -0.0319364 -0.013606
0.00434637 -0.013606 -0.00888171
-0.00283459 0.00151178 -0.00170075
-0.00736993 -0.0168186 -0.0107714
-0.00585815 -0.0349599 -0.0154958
-0.00585815 0.0432747 0.0181414
-0.0334482 -0.00321253 -0.0476211
0.0041574 0.00510226 -0.00321253
-0.00226767 0.0232436 0.00548021
0 0.0162516 0.00396842
0.000944863 0.0130391 0.00170075
0.000566918 0.0188973 0.00680301
0 0.0096376 0.00132281
0.00075589 -0.00264562 -0.00472431
0.00170075 -0.00661404 -0.00718096
0.00151178 0.00226767 -0.00359048
-0.00132281 0.0374166 0.0241885
-0.00812582 0.0393063 0.00925966
-0.00944863 -0.0117163 -0.0117163
-0.0234326 -0.0221098 0.0281569
0.0041574 -0.0166296 -0.0255113
-0.0432747 0.0308025 -0.0115273
-0.0117163 0.0134171 -0.00982658
0.0425188 -0.0517785 0.0394953
0.00982658 -0.0315584 0.0368497
0.0109604 -0.0404401 -0.0166296
0.00869274 -0.00793685 -0.00831479
-0.0120942 -0.0134171 -0.0113384
-0.0100155 -0.0455424 -0.0196532
-0.0255113 0.0362827 0.027401
-0.0190862 0.0670853 0.0366607
0.0253223 0.061794 0.00642507
-0.0357158 0.0041574 -0.0663294
-0.013795 0.0187083 -0.105825
-0.102423 -0.0115273 -0.0179524
-0.000377945 0.0128501 0.00321253
0.00075589 -0.00944863 -0.0075589
0.00226767 -0.0168186 -0.0120942
0.0020787 -0.000377945 -0.00510226
-0.0190862 -0.0124722 -0.0105825
Vibration 14
0.000566918 -0.00699199 -0.0326923
0.00132281 -0.00925966 -0.0154958
0.00302356 -0.0103935 0.0313695
0.0041574 -0.00907068 0.0440306
0.0062361 -0.00642507 0.00869274
0.00377945 -0.00529123 -0.0124722
0.0075589 -0.00736993 -0.00944863
0.00472431 0.0105825 0.00491329
0.00736993 0.0359048 0.0313695
-0.00661404 -0.00340151 -0.0447865
-0.0230547 -0.00888171 -0.0427078
-0.0187083 -0.0124722 -0.020598
0.0020787 -0.00907068 -0.00170075
0.00491329 0.00510226 -0.0134171
0.00132281 0.00585815 -0.034204
0.0241885 -0.0243775 0.0404401
0.00302356 0 0.0419519
0.0187083 0.0102045 0.0359048
0.0194642 0.0151178 0.013606
0.00283459 0.00907068 -0.00226767
-0.0149288 0.0132281 0.0141729
-0.013795 0.00831479 0.0364717
0.0041574 -0.00453534 -0.0444086
-0.0202201 0.0228657 0.0132281
0.000188973 -0.00453534 -0.00491329
-0.00170075 -0.00226767 -0.00264562
0 -0.0102045 -0.0062361
-0.000944863 0.00585815 0.00226767
-0.000377945 -0.00132281 -0.00264562
0.000377945 -0.0257003 -0.0149288
-0.000377945 -0.0145509 -0.0096376
-0.00151178 0.0145509 0.00566918
-0.00170075 0.0234326 0.0109604
-0.00075589 -0.0075589 -0.00736993
-0.00529123 0.0124722 0.00075589
-0.0062361 -0.0102045 -0.0122832
-0.000188973 -0.0102045 -0.0338261
-0.000188973 -0.0132281 -0.0187083
-0.0376055 -0.0128501 -0.0565028
-0.0279679 -0.0187083 -0.0166296
0.013606 0.0126612 -0.00359048
0.00793685 0.013606 -0.0396842
0.0325033 0.0115273 0.0457314
0.0326923 0.0202201 0.00680301
-0.0291018 0.0168186 0.0075589
-0.0272121 0.00850377 0.0468652
0.034582 0.00869274 -0.0597153
-0.0075589 -0.020598 -0.0684081
-0.0132281 -0.013984 -0.041196
-0.00604712 0.00661404 0.0462983
-0.0175745 0.0236216 -0.0585815
-0.0657625 0.0695419 0.0366607
0.00113384 -0.0442196 -0.0249444
-0.000188973 -0.0268341 -0.0164406
-0.00226767 0.0291018 0.0128501
-0.00283459 0.0425188 0.020976
-0.0120942 -0.00793685 -0.0111494
Vibration 15
-0.0020787 -0.0020787 -0.00774788
-0.00170075 -0.00188973 0.00566918
-0.00113384 -0.0020787 0.00812582
-0.0020787 -0.00264562 -0.00812582
-0.00075589 -0.00302356 -0.0171965
-0.00170075 -0.00188973 -0.0132281
0.00226767 -0.00151178 -0.0247554
-0.00113384 0.00661404 -0.000188973
0.000377945 0.020976 0.0183303
-0.00434637 -0.000944863 -0.0100155
-0.00925966 -0.00113384 -0.0107714
-0.00774788 -0.00226767 -0.00604712
-0.000944863 -0.00340151 -0.000566918
-0.000566918 -0.000377945 -0.00302356
-0.0020787 0.000188973 -0.0075589
0.0075589 -0.00869274 0.0105825
-0.00170075 0.00774788 0.0187083
0.00302356 0.0154958 0.0200311
0.00340151 0.0149288 0.0107714
-0.00151178 0.0062361 0.000566918
-0.00774788 0.013795 0.0103935
-0.00736993 0.0143619 0.0194642
0.000188973 -0.0162516 -0.0268341
-0.00566918 0.00245664 0.00151178
0.00340151 -0.0075589 -0.0062361
0.00510226 -0.013795 -0.00661404
-0.000188973 0.0226767 0.00831479
0.00321253 -0.0292908 -0.0196532
0.00132281 0.00170075 0.00340151
-0.00170075 0.0867384 0.0417629
-0.000188973 0.0599043 0.0287238
0.00359048 -0.0432747 -0.0253223