[Molden Format]
[FREQ]
-304.6
15.2
20.9
26.9
28.8
30.6
43.0
44.3
51.5
57.6
60.7
78.6
95.2
105.3
116.5
126.4
135.8
148.6
167.4
179.5
188.0
201.4
223.9
233.5
242.4
252.2
266.2
278.7
288.3
294.1
318.3
328.3
338.1
351.7
356.3
361.5
382.7
388.3
409.4
421.6
430.4
487.8
500.7
512.4
524.2
531.8
543.3
555.8
563.1
577.8
587.9
610.1
615.4
626.9
644.3
654.2
659.7
678.6
707.8
715.1
733.8
753.6
765.4
789.2
803.9
831.4
834.9
847.5
868.0
881.6
882.4
898.0
900.9
943.3
944.0
962.1
974.3
1000.8
1006.3
1009.0
1009.8
1016.7
1017.2
1024.4
1033.2
1047.2
1070.7
1074.2
1080.6
1103.6
1122.9
1126.7
1139.7
1160.7
1178.5
1180.9
1183.4
1197.2
1208.5
1234.3
1247.7
1260.0
1265.3
1269.2
1274.3
1279.3
1283.4
1286.7
1296.8
1302.9
1310.7
1317.2
1325.2
1339.3
1340.2
1348.8
1351.0
1365.2
1380.0
1389.8
1395.6
1412.7
1428.2
1500.5
1520.7
1527.1
1530.7
1534.7
1544.5
1560.4
1561.9
1602.9
1609.1
1650.5
1686.9
1699.3
1700.8
1707.9
1710.6
1716.6
1719.9
1878.7
1918.6
2449.9
2651.6
2654.1
2667.2
2673.8
2729.9
2744.9
2745.4
2745.5
2745.6
2749.0
2749.9
2750.5
2755.1
2762.3
2763.3
2765.4
2765.9
2766.7
2769.7
2779.6
2781.6
       
[FR-COORD]
C -2.31529 -3.18249 -0.645152
C 0.318986 -3.18249 -0.645152
C 1.61439 -0.866817 -0.645152
N 0.395331 1.36287 -0.607736
C -2.17659 1.3897 -0.626633
C -3.63073 -0.871353 -0.642885
N -3.27112 3.75753 -0.657247
C -6.29146 -0.76326 -0.70638
N -8.47655 -0.628712 -0.758536
C -3.68024 -5.59094 -0.654034
C -3.21405 -7.34555 -2.58477
C -4.49056 -9.62853 -2.62861
C -6.24101 -10.1543 -0.699199
C -6.7142 -8.438 1.24646
C -5.42276 -6.14633 1.24684
O -7.34593 -12.4518 -0.963571
C 4.3921 -0.721875 -0.66953
C 5.79296 -1.96097 1.19204
C 8.41306 -1.76085 1.19922
C 9.64384 -0.339395 -0.658381
C 8.23373 0.879101 -2.52808
C 5.61022 0.7026 -2.52713
C 12.4537 -0.145698 -0.639861
C -9.23339 -13.1266 0.825243
C -1.72929 6.01802 -0.434826
C -1.24382 6.6919 2.42376
C 1.51726 6.74991 2.78451
C 2.79453 6.27351 0.499833
C 1.00496 5.82319 -1.61269
C 2.83894 7.13258 5.00532
C 5.48398 7.0311 4.92349
C 6.74519 6.56755 2.66187
C 5.40197 6.18885 0.410637
O 1.45622 5.53028 -3.79892
O -2.88656 7.01712 3.93838
O -2.84763 8.08954 -1.58586
H 1.36703 -4.94825 -0.645152
H -5.13287 3.92761 -0.213539
H -1.85136 -6.89561 -4.06764
H -4.17346 -11.009 -4.11696
H -8.06459 -8.84694 2.73311
H -5.77859 -4.77779 2.74955
H 4.83392 -3.06041 2.64581
H 9.50835 -2.71138 2.65525
H 9.18237 1.97193 -3.98808
H 4.4932 1.69187 -3.96049
H 13.2026 0.132659 1.27727
H 13.1585 1.42429 -1.80015
H 13.3197 -1.88576 -1.38441
H -9.8279 -14.9969 0.146454
H -10.8189 -11.7987 0.764961
H -8.43101 -13.2691 2.72555
H 1.84607 7.49371 6.77334
H 6.55962 7.31343 6.65505
H 8.8014 6.48327 2.63409
H 6.38614 5.80732 -1.35834
H -4.66706 7.87203 -1.89483

[FR-NORM-COORD]
Vibration 1
0.00075589 0.000377945 0
0 -0.000188973 0.00132281
-0.000566918 0.00113384 0.00321253
0.00510226 0.00170075 -0.00151178
-0.000377945 0.00283459 -0.00850377
-0.000566918 -0.000944863 -0.00453534
0.0151178 -0.00774788 0.0215429
0.000566918 -0.00075589 -0.00188973
0.000188973 -0.000377945 0.00151178
0.000188973 0 0.000188973
0.000188973 0 0.000188973
0 0 0.000188973
0 0.000188973 0
0 0 0
0.000188973 0 0
0 -0.000188973 0
0.000377945 0 0.00113384
0.000566918 0 0.00075589
0.000566918 0 0.000188973
0.000188973 0 0.000188973
0 -0.000377945 0
0 -0.00113384 0.000188973
0.000188973 0 -0.000188973
0 0.000188973 0
-0.00642507 0.00831479 0.00453534
-0.000944863 -0.0147399 0.00604712
-0.00264562 -0.00661404 0.00510226
-0.00377945 0.000377945 0.00283459
0 0.0120942 -0.00245664
-0.000188973 -0.00340151 0.00302356
0 0 0.000377945
-0.00170075 0.000188973 -0.000566918
-0.00359048 0.000944863 0.000188973
-0.00151178 0.000566918 0.00170075
-0.00510226 0.0124722 -0.00151178
0.020976 -0.0374166 -0.0854156
0.000566918 0.00113384 0.000377945
-0.0464873 -0.00340151 -0.287805
0.000566918 0.000188973 0.000566918
-0.000188973 0.000188973 0
0 0.000188973 -0.000188973
0.000188973 0.000566918 -0.000377945
0.000377945 -0.000377945 0.000566918
0.000944863 -0.000377945 -0.000377945
0 -0.00132281 -0.000566918
-0.000377945 -0.00359048 -0.000944863
0.000377945 -0.000188973 -0.000188973
0.000188973 -0.000188973 -0.000377945
-0.000188973 -0.000188973 -0.000377945
-0.000377945 0.000188973 0.000377945
0.000188973 0.000377945 0
0 0.000377945 0
0.00132281 -0.00642507 0.00453534
0.00132281 0.000566918 -0.000377945
-0.00151178 -0.000566918 -0.0020787
-0.0041574 0.00132281 -0.000566918
-0.264751 0.51136 1.20016
Vibration 2
0.00396842 0.00396842 -0.0119053
0.00396842 0.00321253 -0.0145509
0.00491329 0.00283459 -0.0192752
0.00529123 0.00321253 -0.0202201
0.00548021 0.00396842 -0.0196532
0.00472431 0.00434637 -0.0170075
0.00548021 0.0041574 -0.0200311
0.00472431 0.00491329 -0.0187083
0.00491329 0.00510226 -0.020787
0.00321253 0.00434637 -0.00113384
0.00132281 -0.00491329 0.00680301
0.00132281 -0.00529123 0.0192752
0.00340151 0.00396842 0.0238105
0.00510226 0.013606 0.0156847
0.00491329 0.013606 0.00321253
0.00359048 0.00245664 0.0364717
0.00472431 0.00132281 -0.0228657
0.0075589 -0.0134171 -0.034582
0.00774788 -0.0160627 -0.0383614
0.00548021 -0.00377945 -0.0306136
0.00283459 0.0113384 -0.0187083
0.00283459 0.013795 -0.0147399
0.00566918 -0.00718096 -0.034582
0.00699199 0.0103935 0.0428968
0.00396842 0.00434637 -0.0105825
-0.0183303 0.00302356 -0.00642507
-0.0213539 -0.00774788 0.0175745
-0.00340151 -0.0075589 0.02759
0.0130391 0.00491329 0.0105825
-0.0393063 -0.0179524 0.0298577
-0.0389284 -0.0283459 0.0527234
-0.0211649 -0.0283459 0.0625499
-0.00302356 -0.0177634 0.0500777
0.0304246 0.0168186 0.0126612
-0.0304246 0.00888171 -0.020787
0.0120942 0.00377945 -0.0192752
0.00340151 0.00283459 -0.0124722
0.00434637 0.00321253 -0.0241885
-0.000377945 -0.0120942 0.00321253
0 -0.0124722 0.0257003
0.00642507 0.020976 0.0188973
0.00642507 0.020976 -0.00321253
0.00944863 -0.0230547 -0.0404401
0.00982658 -0.0279679 -0.0476211
0.000944863 0.0213539 -0.0124722
0.000944863 0.0251334 -0.00585815
0.00831479 -0.00944863 -0.0351489
0.00604712 -0.00699199 -0.034204
0.00283459 -0.0075589 -0.0370386
0.00736993 0.0062361 0.0536682
0.00585815 0.00888171 0.0381725
0.00982658 0.020976 0.0425188
-0.0531013 -0.0181414 0.0221098
-0.0527234 -0.0368497 0.0627389
-0.0211649 -0.0364717 0.0801244
0.0107714 -0.0177634 0.0576366
0.0141729 0.00340151 -0.0319364
Vibration 3
0.00377945 -0.00680301 0.0145509
0.00377945 -0.0075589 0.00566918
0.00453534 -0.00793685 0.00831479
0.00529123 -0.00736993 0.0154958
0.00529123 -0.00680301 0.0217318
0.00453534 -0.00642507 0.0270231
0.00472431 -0.00718096 0.0202201
0.0041574 -0.00604712 0.0432747
0.00377945 -0.0062361 0.0580146
0.00245664 -0.00604712 0.00566918
-0.0113384 0.0102045 -0.0124722
-0.0153068 0.0126612 -0.0253223
-0.00491329 -0.00132281 -0.0196532
0.0102045 -0.0183303 -0.00113384
0.013795 -0.0202201 0.0115273
-0.0113384 0.00340151 -0.034771
0.00453534 -0.0103935 0.000377945
0.00944863 -0.0224877 -0.0113384
0.00982658 -0.0272121 -0.0202201
0.00548021 -0.0198421 -0.0175745
0.000566918 -0.00736993 -0.00548021
0.000377945 -0.00283459 0.00321253
0.00585815 -0.0258892 -0.0270231
-0.00359048 -0.00850377 -0.0311805
0.00283459 -0.00377945 -0.00566918
-0.00907068 0.0351489 -0.0130391
-0.0105825 0.0362827 -0.00188973
-0.00132281 0.00434637 0.0100155
0.00736993 -0.0156847 0.00680301
-0.0196532 0.0650066 -0.00132281
-0.0194642 0.0600933 0.0115273
-0.0103935 0.0260782 0.0236216
-0.00113384 -0.0020787 0.0228657
0.0158737 -0.0313695 0.0107714
-0.0153068 0.0583925 -0.0249444
0.00472431 -0.020598 -0.0381725
0.00302356 -0.00793685 -0.00377945
0.00699199 -0.00585815 0.0302356
-0.0194642 0.0213539 -0.0166296
-0.0264562 0.0255113 -0.0396842
0.0190862 -0.0298577 0.00377945
0.0249444 -0.0330702 0.0257003
0.0130391 -0.0283459 -0.0134171
0.013606 -0.0370386 -0.0294797
-0.00302356 -0.00132281 -0.00340151
-0.00321253 0.00585815 0.0119053
0.0122832 -0.0236216 -0.0298577
0.00585815 -0.0296687 -0.0323143
0 -0.0291018 -0.0262672
-0.0130391 0 -0.0462983
0.000188973 -0.00321253 -0.00907068
0.00661404 -0.0298577 -0.0370386
-0.0268341 0.0908958 -0.0107714
-0.0266451 0.082959 0.0122832
-0.0103935 0.0215429 0.0338261
0.0062361 -0.0279679 0.0323143
0.00510226 -0.0249444 -0.0368497
Vibration 4
-0.00680301 0.00680301 -0.0170075
-0.00718096 0.00340151 -0.0226767
-0.00510226 0.00245664 -0.0147399
-0.00302356 0.00340151 -0.0113384
-0.00321253 0.00604712 -0.0100155
-0.00510226 0.00736993 -0.0075589
-0.00075589 0.00718096 -0.00944863
-0.00566918 0.00680301 0.00812582
-0.00604712 0.00453534 0.0224877
-0.00869274 0.0075589 -0.0164406
-0.0540462 0.0317474 -0.0489439
-0.0506447 0.0296687 -0.0430858
0.00075589 0.00321253 -0.00340151
0.0440306 -0.0187083 0.0264562
0.0379835 -0.0153068 0.0192752
0.00226767 0.0020787 0.000566918
-0.00491329 -0.00075589 -0.0041574
-0.0158737 -0.00170075 0.00377945
-0.0158737 -0.00359048 0.0179524
-0.00472431 -0.00472431 0.0243775
0.0062361 -0.00491329 0.0158737
0.00604712 -0.00264562 0.00170075
-0.00472431 -0.00604712 0.0400622
0.0629279 -0.0311805 0.0519675
0.00226767 0.00510226 -0.00604712
0.00170075 0.000188973 -0.00491329
0.00170075 -0.00491329 -0.00321253
0.0020787 -0.00226767 -0.00340151
0.00245664 0.00359048 -0.00510226
0.000944863 -0.0117163 -0.00170075
0.000944863 -0.0154958 -0.000377945
0.00132281 -0.0120942 -0.00075589
0.0020787 -0.00529123 -0.00226767
0.00340151 0.00642507 -0.00529123
0.00132281 0.000566918 -0.00529123
0.00510226 0.00793685 -0.00377945
-0.00925966 0.0020787 -0.0313695
0 0.00888171 -0.00718096
-0.0916517 0.0515895 -0.0774788
-0.0859825 0.0476211 -0.0672742
0.0816362 -0.0383614 0.05518
0.0708647 -0.0311805 0.041385
-0.0245664 -0.000566918 -0.00132281
-0.0243775 -0.00396842 0.0241885
0.0151178 -0.00642507 0.020598
0.0143619 -0.00226767 -0.00434637
-0.0147399 -0.0124722 0.0449755
0.0020787 -0.00264562 0.0487549
-0.00170075 -0.0041574 0.0393063
0.0548021 -0.02759 0.0495108
0.0519675 -0.041574 0.116407
0.12321 -0.0470542 0.0253223
0.000566918 -0.013984 -0.00132281
0.000377945 -0.0211649 0.00075589
0.00132281 -0.0147399 0
0.00245664 -0.00264562 -0.00264562
0.00491329 0.0107714 -0.00434637
Vibration 5
0.0103935 -0.0075589 0.00925966
0.0102045 -0.00510226 0.00510226
0.00699199 -0.00321253 -0.000566918
0.00396842 -0.00491329 -0.00321253
0.00396842 -0.00736993 0.00113384
0.00718096 -0.00907068 0.00925966
0.00283459 -0.00793685 -0.00359048
0.00680301 -0.0132281 0.0181414
0.00642507 -0.0170075 0.0260782
0.00850377 -0.00661404 0.0100155
-0.00925966 0.00188973 -0.00170075
-0.0219208 0.00888171 -0.00869274
-0.0160627 0.00774788 -0.00377945
0.00604712 -0.00302356 0.0111494
0.0183303 -0.0100155 0.0179524
-0.034393 0.0177634 -0.0147399
0.00661404 0.00604712 -0.00340151
0.0117163 0.0489439 0.0211649
0.0103935 0.0674632 0.0219208
0.00377945 0.0423299 -0.00151178
-0.00132281 -0.00283459 -0.0272121
-0.000188973 -0.020409 -0.0281569
0.0020787 0.0651955 0.000377945
-0.0372276 0.0228657 -0.0158737
0.00321253 -0.00736993 -0.00831479
-0.000944863 -0.00188973 -0.00888171
-0.00170075 -0.0134171 -0.0020787
0.0020787 -0.0185193 0.000944863
0.00529123 -0.0124722 -0.00321253
-0.00548021 -0.020598 0.00151178
-0.00585815 -0.0328812 0.00831479
-0.00226767 -0.0372276 0.0111494
0.00188973 -0.0300466 0.0075589
0.00888171 -0.0105825 -0.00283459
-0.00340151 0.00869274 -0.013795
0.00548021 -0.0105825 -0.0154958
0.0122832 -0.00377945 0.0062361
0.00321253 -0.0075589 -0.00151178
-0.0143619 0.00321253 -0.00585815
-0.0370386 0.0160627 -0.0185193
0.0132281 -0.00566918 0.0170075
0.034582 -0.0173855 0.0285349
0.0166296 0.069164 0.0394953
0.0143619 0.102045 0.041574
-0.00642507 -0.0234326 -0.0459203
-0.00434637 -0.0527234 -0.0468652
-0.00075589 0.0782347 -0.000377945
-0.0100155 0.0667073 -0.00510226
0.0164406 0.0693529 0.00718096
-0.0582036 0.034582 -0.0294797
-0.0238105 0.0396842 -0.00113384
-0.0338261 -0.000566918 -0.0190862
-0.00850377 -0.0166296 -0.000944863
-0.00907068 -0.0391173 0.0111494
-0.00245664 -0.0464873 0.0162516
0.00453534 -0.034393 0.00982658
0.0062361 -0.0117163 -0.0192752
Vibration 6
-0.0149288 0.0134171 0.0075589
-0.0145509 0.0111494 0.0100155
-0.0122832 0.00944863 0.00925966
-0.0100155 0.0103935 0.00831479
-0.0100155 0.0132281 0.00925966
-0.0126612 0.0145509 0.00944863
-0.00491329 0.0154958 0.00812582
-0.0124722 0.0187083 0.0107714
-0.0122832 0.0226767 0.0124722
-0.0105825 0.0109604 0
0.0168186 0.00793685 0.00888171
0.034393 -0.00132281 0.00585815
0.0230547 -0.00812582 -0.00604712
-0.00888171 -0.00302356 -0.0185193
-0.0255113 0.00661404 -0.0153068
0.0476211 -0.0200311 -0.00434637
-0.0120942 0.00491329 0.00604712
-0.013606 0.0321253 0.0251334
-0.0128501 0.0239995 0.0177634
-0.0113384 -0.0117163 -0.00850377
-0.0105825 -0.0372276 -0.0258892
-0.0111494 -0.0283459 -0.0185193
-0.0105825 -0.0228657 -0.0192752
0.0459203 -0.0340151 -0.0115273
0.00188973 0.0120942 -0.00170075
0.00359048 0.0226767 -0.00453534
0.00359048 0.0020787 -0.00113384
0.00302356 -0.0120942 0.00151178
0.00226767 -0.00321253 0.000188973
0.00377945 -0.00604712 0.000188973
0.00302356 -0.0291018 0.0041574
0.00226767 -0.0430858 0.00661404
0.00245664 -0.034582 0.00529123
0.00188973 -0.00566918 0.000377945
0.00434637 0.0440306 -0.00850377
0.00888171 0.0102045 -0.0115273
-0.0158737 0.0103935 0.0119053
-0.00377945 0.0211649 0.0096376
0.0258892 0.0128501 0.0185193
0.0572587 -0.00434637 0.0134171
-0.020409 -0.00661404 -0.0298577
-0.0495108 0.0096376 -0.0236216
-0.0149288 0.0597153 0.0449755
-0.013795 0.0451645 0.0323143
-0.00925966 -0.0640617 -0.0451645
-0.0103935 -0.0472432 -0.0319364
-0.00075589 -0.0268341 -0.0226767
-0.00925966 -0.0251334 -0.0217318
-0.020976 -0.0260782 -0.0238105
0.0735103 -0.0455424 -0.00472431
0.0294797 -0.0544241 -0.0283459
0.0362827 -0.0134171 -0.00604712
0.00434637 0.00529123 -0.00188973
0.00283459 -0.0362827 0.00529123
0.00170075 -0.0612271 0.00982658
0.00151178 -0.0461093 0.00718096
0.00907068 0.0134171 -0.0141729
Vibration 7
0.00944863 0.00661404 0.0141729
0.00944863 0.0113384 0.00359048
0.0062361 0.0132281 -0.0062361
0.00359048 0.0120942 -0.0185193
0.00340151 0.00718096 -0.00793685
0.00642507 0.00472431 0.0179524
-0.00377945 0.0041574 -0.0226767
0.00548021 0.00132281 0.055369
0.00434637 -0.00132281 0.0916517
0.0143619 0.0041574 0.0160627
0.0234326 0.00472431 0.0171965
0.0228657 0.00529123 0.00944863
0.0122832 0.00548021 -0.000377945
0.00699199 0.00226767 0.00113384
0.00850377 0.00132281 0.00982658
0.00850377 0.00850377 -0.0105825
0.00642507 0.00944863 0.000188973
-0.00245664 -0.0160627 -0.0096376
-0.00170075 -0.0298577 -0.00302356
0.00869274 -0.0171965 0.0134171
0.0179524 0.0102045 0.0245664
0.0168186 0.0232436 0.0177634
0.00982658 -0.034771 0.0194642
-0.0175745 0.0181414 -0.034393
-0.0124722 0.0102045 -0.0187083
-0.0124722 -0.0020787 -0.0156847
-0.0126612 -0.0145509 -0.0134171
-0.0128501 0.00661404 -0.0179524
-0.0132281 0.0236216 -0.0213539
-0.0130391 -0.0461093 -0.00793685
-0.0134171 -0.0546131 -0.00718096
-0.0134171 -0.0287238 -0.0124722
-0.0130391 0.00302356 -0.0179524
-0.013606 0.0387394 -0.0234326
-0.0128501 -0.00283459 -0.0160627
-0.0224877 0.00925966 -0.0096376
0.0120942 0.0128501 0.00396842
-0.00472431 -0.00075589 -0.0230547
0.0300466 0.00548021 0.0236216
0.0294797 0.00642507 0.00982658
0.00132281 0.000566918 -0.00434637
0.00434637 -0.00113384 0.0111494
-0.0103935 -0.0262672 -0.0224877
-0.00888171 -0.0506447 -0.0111494
0.0258892 0.020787 0.0377945
0.0239995 0.0425188 0.0255113
0.00774788 -0.0489439 0.0224877
0.0219208 -0.0332592 0.0287238
0.000566918 -0.0362827 0.0126612
-0.0230547 0.0239995 -0.0453534
-0.00736993 0.0296687 -0.0498888
-0.0406291 0.00831479 -0.0255113
-0.0130391 -0.0642507 -0.0041574
-0.013606 -0.0814472 -0.00264562
-0.013606 -0.0338261 -0.0122832
-0.0128501 0.0234326 -0.0221098
-0.020976 0.00113384 -0.0126612
Vibration 8
-0.013795 -0.00396842 -0.0215429
-0.0130391 -0.0096376 -0.0417629
-0.00699199 -0.013606 -0.034204
-0.00151178 -0.0103935 -0.0192752
-0.00113384 -0.00377945 -0.00548021
-0.0075589 -0.000188973 0.000944863
0.00604712 -0.000377945 0.00491329
-0.00793685 0.0109604 0.0357158
-0.00793685 0.0226767 0.0684081
-0.0156847 -0.00283459 -0.0177634
0.00510226 -0.0198421 0.00226767
0.0126612 -0.0241885 0.0122832
-0.00302356 -0.0117163 0.00151178
-0.0281569 0.00699199 -0.0211649
-0.0338261 0.0100155 -0.0302356
0.0102045 -0.0196532 0.0160627
-0.00699199 -0.0134171 -0.0296687
-0.0119053 -0.0236216 -0.0326923
-0.013606 -0.00226767 -0.00925966
-0.0102045 0.0289128 0.0168186
-0.00434637 0.0298577 0.0130391
-0.00302356 0.00831479 -0.0102045
-0.0128501 0.0636838 0.0514005
0.000566918 -0.0115273 0.00925966
0.013795 -0.00510226 -0.000188973
0.0117163 0.00113384 -0.00132281
0.0111494 0.000377945 0.00132281
0.0132281 -0.00812582 0.00434637
0.0149288 -0.0126612 0.00340151
0.00907068 0.0103935 0.000944863
0.00925966 0.0122832 0.00359048
0.0113384 0.00396842 0.00642507
0.0132281 -0.0062361 0.00699199
0.0175745 -0.0147399 0.0041574
0.0102045 0.00604712 -0.00377945
0.020976 -0.00491329 -0.00718096
-0.0170075 -0.0120942 -0.0585815
0.00944863 0.00491329 0.0183303
0.0166296 -0.0298577 0.00982658
0.0308025 -0.0374166 0.0285349
-0.0425188 0.0183303 -0.0308025
-0.0517785 0.0222988 -0.0453534
-0.0147399 -0.0457314 -0.0512116
-0.0177634 -0.00774788 -0.00982658
-0.00113384 0.0491329 0.0296687
0.000944863 0.0113384 -0.0113384
-0.0417629 0.0805023 0.0604712
-0.0175745 0.0682191 0.0548021
0.0188973 0.0719986 0.0695419
0.0194642 -0.0239995 0.0272121
-0.00831479 -0.0234326 -0.0198421
-0.013984 0.0171965 0.0175745
0.00736993 0.0173855 -0.00151178
0.0075589 0.020598 0.00321253
0.0113384 0.00604712 0.00831479
0.0151178 -0.0119053 0.00925966
0.0194642 0.00170075 -0.00264562
Vibration 9
0.00170075 0.00075589 -0.00283459
0.00170075 0.00188973 -0.00453534
0.00075589 0.00226767 -0.00377945
0.000188973 0.00188973 -0.00188973
0.000188973 0.000944863 -0.000377945
0.000944863 0.000377945 -0.000944863
-0.00113384 0.000377945 0.00245664
0.000944863 -0.000566918 0.00075589
0.00075589 -0.00151178 0.00188973
0.00226767 0.000566918 -0.00188973
0.00151178 0.000188973 -0.00170075
0.00151178 0.000188973 -0.000944863
0.0020787 0.00075589 -0.000188973
0.00321253 0.00075589 0
0.00340151 0.000566918 -0.00075589
0.00132281 0.000944863 0.000377945
0.000944863 0.00151178 -0.00434637
-0.000377945 0.00359048 -0.000944863
-0.000944863 -0.000566918 -0.00283459
0.00151178 -0.00793685 -0.00850377
0.00340151 -0.00907068 -0.00907068
0.00226767 -0.0041574 -0.00680301
0.00170075 -0.0117163 0.0109604
-0.000377945 0.00302356 -0.000566918
-0.00264562 0.00113384 0.00321253
-0.00188973 -0.000377945 0.00340151
-0.00170075 0.000566918 0.00226767
-0.00245664 0.00151178 0.00170075
-0.00302356 0.00302356 0.00188973
-0.000944863 0.000377945 0.00188973
-0.000944863 0.00113384 0.00075589
-0.00170075 0.00132281 0.000188973
-0.00245664 0.00113384 0.00075589
-0.00396842 0.00548021 0.00132281
-0.00132281 -0.00188973 0.00434637
-0.00434637 0.00113384 0.00510226
0.00226767 0.00226767 -0.00604712
-0.00113384 -0.00113384 0.00321253
0.000944863 -0.000188973 -0.00245664
0.00075589 0 -0.00075589
0.0041574 0.000944863 0.00075589
0.00434637 0.00075589 -0.00075589
-0.0020787 0.00888171 0.00170075
0 0.00302356 -0.00132281
0.00264562 -0.0126612 -0.0122832
0.00359048 -0.00453534 -0.00812582
-0.0680301 0.528178 -0.0385504
0.0468652 -0.341285 -0.406291
0.0257003 -0.221476 0.531958
-0.00245664 0.00396842 -0.00113384
0.00113384 0.00510226 -0.00113384
-0.00151178 0.00188973 -0.000377945
-0.000377945 -0.000188973 0.00226767
-0.000377945 0.00151178 0.000377945
-0.00170075 0.0020787 -0.00075589
-0.00302356 0.000944863 0.000377945
-0.00434637 0.000188973 0.00566918
Vibration 10
-0.0096376 0.00283459 0.0326923
-0.00944863 -0.00188973 0.048188
-0.00529123 -0.00453534 0.0336371
-0.00340151 -0.00245664 0.0179524
-0.00283459 0.00188973 0.00831479
-0.00661404 0.0041574 0.0126612
0.00302356 0.00472431 -0.0126612
-0.00585815 0.00718096 -0.00944863
-0.00529123 0.00907068 -0.0300466
-0.0113384 0.00340151 0.0232436
-0.0096376 0.0164406 0.0115273
-0.00604712 0.0151178 -0.00283459
-0.00359048 -0.000188973 -0.00472431
-0.00699199 -0.0124722 0.00510226
-0.0113384 -0.00944863 0.0188973
0.00283459 -0.00170075 -0.0190862
-0.00585815 -0.00283459 0.020787
0.0126612 -0.0323143 -0.0128501
0.0119053 -0.0198421 -0.0270231
-0.00699199 0.0230547 -0.00680301
-0.0247554 0.0476211 0.0226767
-0.0234326 0.0332592 0.0362827
-0.00850377 0.0449755 -0.0149288
0.0183303 -0.0270231 -0.0126612
0.00888171 0.00113384 -0.0130391
0.00793685 0.000566918 -0.0128501
0.0075589 -0.0111494 -0.00869274
0.00888171 -0.00585815 -0.00888171
0.00982658 -0.00604712 -0.0096376
0.00585815 -0.0251334 -0.00529123
0.00566918 -0.0304246 -0.00245664
0.00736993 -0.0179524 -0.00396842
0.00907068 -0.00472431 -0.00718096
0.0117163 -0.0147399 -0.00831479
0.00699199 0.00982658 -0.0158737
0.0162516 0.00302356 -0.0164406
-0.0132281 -0.0041574 0.0646286
0.00151178 0.0117163 -0.0213539
-0.0103935 0.0281569 0.0141729
-0.00472431 0.0251334 -0.0119053
-0.00661404 -0.0238105 0.00245664
-0.0147399 -0.0183303 0.0257003
0.0279679 -0.0642507 -0.0270231
0.0264562 -0.0423299 -0.0527234
-0.0398732 0.0782347 0.0357158
-0.0372276 0.0506447 0.0582036
-0.0102045 0.0852266 -0.0198421
-0.0213539 0.0296687 -0.0432747
0.00510226 0.0387394 0.0156847
0.0264562 -0.0258892 -0.0224877
0.00925966 -0.0368497 0.00661404
0.0306136 -0.0355268 -0.0183303
0.00453534 -0.0315584 -0.00453534
0.0041574 -0.0432747 0.000566918
0.00736993 -0.0188973 -0.00264562
0.0109604 0.00585815 -0.00850377
0.0162516 0.00736993 -0.0202201
Vibration 11
0.0107714 -0.00548021 -0.0183303
0.0103935 -0.00170075 -0.0253223
0.00699199 0.000377945 -0.0113384
0.00453534 -0.00113384 0.0113384
0.0041574 -0.00453534 0.020787
0.00793685 -0.00699199 -0.00396842
-0.00377945 -0.00869274 0.062172
0.00831479 -0.0115273 -0.0253223
0.00850377 -0.0156847 -0.0495108
0.0109604 -0.00548021 -0.0154958
0.00453534 -0.0120942 -0.0103935
-0.000188973 -0.0100155 -0.00075589
0.00188973 -0.000566918 0.00359048
0.00982658 0.00566918 0.000188973
0.0143619 0.00264562 -0.00944863
-0.00529123 0.00170075 0.0132281
0.00718096 -0.000377945 -0.00944863
0.00245664 -0.020598 -0.0190862
0.0020787 -0.0188973 -0.00774788
0.00718096 0.00377945 0.0128501
0.0126612 0.0190862 0.0188973
0.0124722 0.0166296 0.0075589
0.00642507 0.0120942 0.0304246
-0.0120942 0.0185193 0.0124722
-0.0175745 0.00321253 0.0222988
-0.000944863 0.0489439 0.00869274
0.00151178 0.0143619 -0.000566918
-0.0119053 -0.00548021 -0.00396842
-0.0247554 0.000944863 0.0062361
0.0141729 -0.00113384 -0.00548021
0.0124722 -0.0387394 -0.013606
-0.00075589 -0.0542351 -0.0177634
-0.0132281 -0.0355268 -0.0134171
-0.0402512 0.00151178 0.00283459
0.00944863 0.112628 0.00604712
-0.0394953 -0.0198421 0.00151178
0.0130391 -0.000188973 -0.0398732
-0.00170075 -0.0185193 0.0719986
0.00245664 -0.0192752 -0.0145509
-0.00566918 -0.0151178 0.00283459
0.0126612 0.0124722 0.00472431
0.020787 0.0075589 -0.0122832
-0.00170075 -0.0374166 -0.034204
-0.0020787 -0.0340151 -0.0145509
0.0170075 0.0336371 0.0325033
0.0166296 0.0281569 0.0122832
-0.00680301 0.00869274 0.0362827
0.00907068 0.0179524 0.0398732
0.0168186 0.0171965 0.0308025
-0.0215429 0.0196532 0.0179524
-0.00453534 0.0272121 0.00548021
-0.0158737 0.020598 0.0141729
0.0251334 0.0147399 -0.00264562
0.0217318 -0.054991 -0.0168186
-0.0020787 -0.0818251 -0.0243775
-0.0238105 -0.0453534 -0.0170075
-0.0368497 -0.041385 0.00302356
Vibration 12
-0.013795 0.00925966 -0.00529123
-0.0141729 0.00944863 -0.0102045
-0.0149288 0.00944863 -0.0117163
-0.0160627 0.00793685 -0.00850377
-0.0164406 0.00831479 -0.00699199
-0.0160627 0.00812582 -0.0075589
-0.00812582 0.0124722 -0.00321253
-0.0162516 0.0020787 -0.0115273
-0.0166296 -0.0075589 -0.0173855
-0.00151178 0.0020787 0.00453534
-0.0134171 0.0132281 -0.00850377
0.00774788 0.00132281 0.00283459
0.0387394 -0.0192752 0.0251334
0.0568808 -0.0332592 0.0419519
0.0362827 -0.0213539 0.0317474
0.0566918 -0.0294797 0.0351489
-0.0154958 0.00736993 -0.0102045
-0.0217318 -0.000944863 -0.0109604
-0.0217318 -0.00510226 -0.00491329
-0.0160627 -0.00075589 0.0020787
-0.00982658 0.0062361 0.0020787
-0.0102045 0.0102045 -0.00434637
-0.0160627 -0.0041574 0.0103935
-0.0600933 0.0360938 -0.0633058
0.00718096 0.00264562 0.00113384
0.00831479 -0.000377945 0.00170075
0.00831479 -0.00132281 0.00226767
0.00850377 -0.0105825 0.00434637
0.00831479 -0.0130391 0.00434637
0.00812582 0.00907068 0.000566918
0.00812582 0.00907068 0.00151178
0.00850377 -0.00170075 0.00377945
0.00850377 -0.0115273 0.00548021
0.0100155 -0.0187083 0.00548021
0.00869274 -0.00075589 0.00226767
0.0239995 0.0113384 0.000566918
-0.013984 0.00944863 -0.0115273
-0.00585815 0.0202201 0.00132281
-0.0406291 0.0319364 -0.0279679
-0.0020787 0.00944863 -0.00661404
0.0884392 -0.05518 0.0648176
0.0498888 -0.0313695 0.0436527
-0.0266451 -0.00377945 -0.0162516
-0.0258892 -0.0113384 -0.00566918
-0.00491329 0.00869274 0.00718096
-0.00604712 0.0149288 -0.00434637
-0.0211649 -0.00888171 0.0132281
-0.0107714 -0.00283459 0.0154958
-0.0158737 -0.00377945 0.0096376
-0.0857936 0.0542351 -0.0907068
-0.0143619 0.0871164 -0.146643
-0.16195 0.0134171 -0.0221098
0.00793685 0.0171965 -0.00113384
0.00793685 0.0177634 0.000188973
0.00850377 -0.00188973 0.00434637
0.00888171 -0.0183303 0.00699199
0.0221098 0.0262672 0.00132281
Vibration 13
-0.00812582 -0.00642507 0.027779
-0.00736993 -0.0196532 0.0272121
0.00548021 -0.0272121 -0.00925966
0.020598 -0.0171965 -0.0285349
0.0213539 -0.00510226 -0.00661404
0.00774788 0.00113384 0.00812582
0.0202201 -0.00566918 0.00359048
0.00925966 0.0245664 -0.00774788
0.0115273 0.0546131 -0.02759
-0.0149288 -0.00340151 0.0283459
-0.0162516 0.00888171 0.0160627
-0.00869274 0.00566918 0.00491329
-0.00113384 -0.0122832 0.00718096
-0.00188973 -0.0245664 0.0175745
-0.0096376 -0.0188973 0.027779
0.0119053 -0.0173855 -0.00510226
0.00642507 -0.0430858 -0.0236216
0.00680301 -0.0304246 -0.0153068
0.00548021 -0.0126612 -0.00396842
0.00396842 -0.00869274 -0.00170075
0.00548021 -0.0417629 -0.0245664
0.00642507 -0.0574477 -0.034771
0.000566918 0.0396842 0.0300466
-0.00793685 -0.0266451 -0.0300466
-0.000566918 0.00699199 0.00226767
-0.00321253 0.0100155 0.00264562
-0.00321253 0.0141729 0.00283459
-0.00283459 0.0234326 0.00113384
-0.0020787 0.0423299 -0.00302356
-0.00377945 0.00718096 0.0041574
-0.00377945 0.00604712 0.00434637
-0.00359048 0.00888171 0.00377945
-0.00302356 0.0170075 0.0020787
-0.00283459 0.0814472 -0.00793685
-0.00396842 0.0113384 0.00132281
-0.0281569 -0.00245664 0.0103935
-0.0171965 -0.0255113 0.048377
0.0173855 -0.013795 -0.00075589
-0.0215429 0.0219208 0.0147399
-0.00888171 0.0160627 -0.00472431
0.00396842 -0.0389284 0.0190862
-0.0117163 -0.0281569 0.0353379
0.00774788 -0.0296687 -0.0141729
0.00491329 0.00264562 0.00642507
0.00548021 -0.0496998 -0.0304246
0.00699199 -0.0750221 -0.0464873
-0.0253223 0.0400622 0.0400622
-0.0151178 0.0606602 0.0487549
0.0400622 0.0604712 0.027779
-0.0020787 -0.0219208 -0.048188
-0.00604712 -0.0249444 -0.0381725
-0.0281569 -0.0389284 -0.0224877
-0.00396842 0.00226767 0.00510226
-0.00396842 0.00170075 0.00510226
-0.00377945 0.00510226 0.00472431
-0.00340151 0.0173855 0.00170075
-0.0255113 -0.0239995 0.0107714
Vibration 14
-0.000944863 -0.0075589 -0.0258892
-0.000188973 -0.013795 -0.0119053
0.00529123 -0.0170075 0.027779
0.0109604 -0.0130391 0.0404401
0.0122832 -0.00736993 0.0134171
0.00642507 -0.0041574 -0.00642507
0.0105825 -0.00831479 -0.00075589
0.00699199 0.0177634 0.00510226
0.00869274 0.0514005 0.0228657
-0.0107714 -0.00264562 -0.0387394
-0.0279679 -0.00491329 -0.0402512
-0.0213539 -0.0100155 -0.0198421
0.0020787 -0.0115273 0.000566918
0.00396842 0.000188973 -0.00925966
-0.00170075 0.00264562 -0.0281569
0.0291018 -0.0298577 0.0419519
0.00585815 -0.0120942 0.0334482
0.0211649 0.00113384 0.0296687
0.0215429 0.0102045 0.0109604
0.00529123 0.00491329 -0.00340151
-0.0115273 -0.000188973 0.00566918
-0.0102045 -0.00869274 0.0245664
0.00566918 0.00472431 -0.0349599
-0.0236216 0.0179524 0.00510226
0 -0.00170075 -0.0041574
-0.00396842 0.00226767 -0.00472431
-0.0041574 -0.00548021 -0.000566918
-0.0020787 0.0219208 -0.00529123
0 0.0113384 -0.00396842
-0.00642507 -0.034771 0.00548021
-0.00585815 -0.0226767 0.0041574
-0.00340151 0.0224877 -0.00359048
-0.00151178 0.0425188 -0.00831479
0.00075589 -0.00245664 -0.00188973
-0.0062361 0.0160627 -0.0103935
-0.0117163 -0.00982658 -0.00774788
-0.00453534 -0.0162516 -0.0285349
0.00718096 -0.0096376 -0.0120942
-0.0444086 -0.00529123 -0.05518
-0.0306136 -0.013795 -0.0183303
0.013984 0.00434637 0.00113384
0.00434637 0.00850377 -0.0319364
0.034582 0.00302356 0.0394953
0.0340151 0.0190862 0.00736993
-0.0253223 0.000944863 -0.00245664
-0.0224877 -0.0134171 0.0309915
0.0268341 0.0154958 -0.0449755
-0.00680301 -0.00226767 -0.0519675
-0.00321253 0.000188973 -0.034771
-0.00604712 0.00113384 0.0360938
-0.0200311 0.0185193 -0.0750221
-0.0789905 0.0653845 0.0319364
-0.00812582 -0.0651955 0.0107714
-0.00736993 -0.0470542 0.00907068
-0.00283459 0.0389284 -0.00566918
0.000188973 0.0699199 -0.0130391
-0.00907068 -0.0230547 -0.0141729
Vibration 15
-0.00680301 -0.00510226 0.00245664
-0.00736993 -0.00340151 -0.00566918
-0.00982658 -0.00170075 -0.0168186
-0.00944863 -0.00283459 -0.0196532
-0.00982658 -0.0020787 -0.00869274
-0.00812582 -0.00359048 -0.0020787
0.00396842 0.00434637 0.00453534
-0.00925966 -0.0317474 -0.00170075
-0.0122832 -0.0839038 -0.00359048
-0.00321253 -0.00869274 0.0103935
0.00340151 -0.0119053 0.0145509
0.00245664 -0.0111494 0.0100155
-0.0075589 -0.0096376 0.00151178
-0.00718096 -0.0115273 0.00340151
-0.00566918 -0.0119053 0.00736993
-0.0188973 -0.00245664 -0.0134171
-0.0109604 0.00302356 -0.0134171
-0.0190862 0.013606 -0.000566918
-0.0192752 0.0117163 0.00661404
-0.0130391 -0.00226767 0.000377945
-0.00604712 -0.00491329 -0.00680301
-0.0062361 -0.00132281 -0.0132281
-0.0120942 -0.0183303 0
-0.00170075 -0.0187083 -0.00170075
0.0147399 -0.00132281 0.00188973
0.0124722 0.0111494 0.000377945
0.0120942 -0.0243775 0.013795
0.0160627 0.0281569 0.00529123
0.0188973 0.0128501 0.00566918
0.00831479 -0.0702978 0.0239995
0.0100155 -0.0222988 0.0179524
0.0153068 0.0744552 0.000944863
0.0179524 0.0907068 -0.00359048
0.0262672 0.0171965 0.00680301