[Molden Format]
[FREQ]
-200.7
17.7
25.5
26.8
31.6
36.4
41.3
44.0
46.9
53.4
64.6
70.5
81.6
86.1
100.1
114.3
116.9
131.8
136.7
145.3
150.2
174.6
187.1
189.1
214.9
219.3
237.0
253.1
259.6
277.4
287.8
297.3
319.3
337.4
351.3
355.3
357.4
364.1
370.6
402.4
418.8
444.7
477.3
484.2
504.9
515.8
525.4
538.0
547.5
562.5
581.2
593.7
609.5
613.1
621.4
630.3
638.0
653.2
672.9
688.8
718.3
722.1
730.1
752.7
779.2
800.3
824.5
841.8
857.4
876.9
882.2
883.1
898.6
901.2
937.5
950.6
958.7
979.7
1006.5
1009.6
1010.0
1011.3
1018.5
1019.5
1032.3
1037.2
1047.7
1070.3
1081.5
1087.6
1104.5
1126.0
1169.1
1177.4
1179.8
1185.1
1192.0
1205.8
1214.2
1247.5
1255.1
1263.2
1266.0
1268.0
1270.6
1272.2
1281.2
1286.0
1291.7
1299.5
1327.1
1333.4
1333.7
1338.3
1342.9
1348.9
1350.2
1356.2
1363.3
1376.3
1387.2
1398.7
1427.4
1486.0
1517.2
1521.2
1522.9
1533.4
1576.5
1584.0
1586.7
1645.5
1694.5
1695.9
1697.2
1700.8
1707.6
1709.0
1722.4
1737.4
1831.5
1845.5
1963.1
2449.9
2639.0
2651.3
2653.5
2665.2
2672.0
2727.0
2732.7
2738.8
2741.6
2744.6
2744.8
2747.9
2755.4
2757.9
2759.1
2760.6
2763.0
2764.6
2766.2
2768.5
2778.6
       
[FR-COORD]
C -2.86369 -2.49633 -0.864172
C -0.186516 -2.49633 -0.864172
C 1.12514 -0.255491 -0.864172
N -0.102423 2.04525 -0.760993
C -2.77431 2.16128 -0.661782
C -4.13737 -0.217885 -0.805779
N -3.75375 4.41043 -0.318986
C -6.80018 -0.0912738 -0.915761
N -8.98451 0.0221098 -1.00968
C -4.18744 -4.9216 -0.936926
C -3.59577 -6.6781 -2.83346
C -4.83656 -8.97752 -2.93626
C -6.67735 -9.52441 -1.09699
C -7.27204 -7.80986 0.817873
C -6.01727 -5.50005 0.87551
O -7.73503 -11.8346 -1.41144
C 3.90871 -0.21146 -0.899888
C 5.21905 -0.813716 1.31166
C 7.84387 -0.733214 1.32848
C 9.16668 -0.0640617 -0.860014
C 7.84274 0.490195 -3.07761
C 5.21527 0.418574 -3.10161
C 11.9788 0.0402512 -0.81485
C -9.70034 -12.5359 0.282325
C -1.71606 7.04528 0.0062361
C 0.701088 3.23975 4.32974
C 2.88769 4.67745 3.28812
C 3.1137 5.26534 0.728867
C 1.37251 4.40797 -1.28823
C 4.73546 5.46622 4.99209
C 6.79224 6.87879 4.15003
C 6.99577 7.51884 1.60362
C 5.16198 6.71873 -0.103746
O 1.37478 5.0845 -3.44969
O 0.99135 1.20905 5.32015
O -2.94514 8.82219 0.376622
H 0.828078 -4.28665 -0.852644
H -5.64329 4.67858 -0.236405
H -2.16525 -6.21512 -4.24697
H -4.42517 -10.3574 -4.40212
H -8.68934 -8.2358 2.23668
H -6.4657 -4.13472 2.35857
H 4.17932 -1.30901 3.03112
H 8.87056 -1.18146 3.05304
H 8.86754 0.987571 -4.79008
H 4.18045 0.873809 -4.82976
H 12.6954 0.947887 0.911982
H 12.7721 1.08886 -2.42149
H 12.7934 -1.87518 -0.877967
H -10.2317 -14.4158 -0.42311
H -11.3008 -11.2322 0.139651
H -8.99207 -12.6651 2.22062
H 4.57427 4.96639 6.98518
H 8.23618 7.48691 5.48436
H 8.58843 8.64323 0.946564
H 5.3192 7.22348 -2.10327
H -1.16955 4.13737 4.18782

[FR-NORM-COORD]
Vibration 1
0.00510226 -0.0285349 -0.00132281
0.0134171 -0.0253223 0.00548021
0.00321253 -0.0287238 0.0041574
0.00566918 -0.020598 -0.000566918
-0.0149288 -0.0198421 -0.0147399
0.00302356 -0.0461093 -0.0156847
-0.0266451 -0.0642507 -0.0247554
0.00302356 -0.0309915 -0.0122832
0.00340151 -0.00907068 -0.00359048
0.00548021 -0.0260782 0.00132281
0.00113384 -0.020409 -0.00302356
-0.00529123 -0.0168186 -0.00359048
-0.0041574 -0.0111494 -0.00170075
-0.00302356 -0.0124722 -0.000566918
0.00377945 -0.0166296 0.00151178
-0.00680301 -0.0107714 -0.000944863
0.00472431 -0.0166296 0.00188973
0.0062361 -0.00680301 0.00283459
0.00604712 0.000944863 0.00245664
0.00340151 0.000944863 0.00132281
0.00188973 -0.00491329 0.000566918
0.00245664 -0.0166296 0.000377945
0.00340151 0.00283459 -0.000377945
-0.00585815 -0.00642507 0.000944863
0.132281 0.38626 0.0993996
-0.00491329 -0.0173855 -0.020976
0.000944863 -0.0153068 -0.013795
0.0177634 -0.0381725 -0.0185193
0.0510226 -0.1011 -0.0241885
-0.0126612 0.00264562 -0.0075589
-0.0120942 0.00453534 -0.00396842
-0.00585815 -0.000566918 -0.00472431
0.00812582 -0.020409 -0.0109604
-0.0270231 0.00699199 0.0153068
0.00359048 0.000566918 0.0115273
-0.107336 0.196909 0.0319364
0.00982658 -0.0257003 0.0115273
-0.0164406 -0.0614161 -0.0249444
0.00132281 -0.0200311 -0.0020787
-0.0107714 -0.0170075 -0.00434637
-0.00529123 -0.0096376 -0.00245664
0.00850377 -0.0143619 0.000566918
0.00642507 -0.00907068 0.00264562
0.0075589 0.00434637 0.00245664
0.00075589 -0.0062361 -0.000377945
0.00170075 -0.0351489 -0.00321253
0.00434637 0.00170075 -0.000377945
0.00188973 0.00340151 -0.000566918
0.00359048 0.00283459 -0.0020787
-0.00907068 -0.00642507 0.0041574
-0.00434637 -0.00434637 0.000944863
-0.00453534 -0.00491329 0.000566918
-0.0213539 0.0115273 -0.00566918
-0.0173855 0.0109604 -0.000566918
-0.00944863 0.00680301 -0.00113384
0.0183303 -0.027779 -0.0115273
-0.00982658 -0.034393 -0.0625499
Vibration 2
0.00264562 0.00661404 -0.0196532
0.00245664 0.00548021 -0.0241885
0.00321253 0.00510226 -0.0219208
0.00396842 0.00529123 -0.0177634
0.00396842 0.00680301 -0.0222988
0.00340151 0.00718096 -0.0224877
0.00434637 0.00718096 -0.0236216
0.00340151 0.0075589 -0.0228657
0.00359048 0.0075589 -0.0238105
0.00170075 0.00680301 -0.00661404
-0.00661404 -0.00151178 -0.00132281
-0.00548021 -0.00302356 0.0158737
0.00453534 0.0041574 0.0281569
0.0119053 0.0134171 0.0221098
0.0102045 0.0145509 0.00453534
0.00585815 0.00113384 0.0455424
0.00321253 0.00491329 -0.0219208
0.00302356 -0.00472431 -0.0243775
0.00302356 -0.00453534 -0.0238105
0.00321253 0.00510226 -0.020787
0.00340151 0.0149288 -0.0185193
0.00340151 0.0149288 -0.0188973
0.00321253 0.00510226 -0.0200311
0.0183303 0.00585815 0.061983
0.00548021 0.00661404 -0.00774788
-0.0245664 -0.0300466 -0.00907068
-0.0192752 -0.0222988 0.0130391
-0.00377945 -0.00548021 0.0183303
0.00925966 0.0062361 0.00188973
-0.0300466 -0.0328812 0.0296687
-0.0251334 -0.0268341 0.0515895
-0.00982658 -0.0100155 0.0570697
0.000944863 0.000566918 0.0404401
0.0249444 0.0160627 0.00510226
-0.0308025 -0.0400622 -0.027779
0.00434637 0.00604712 -0.00944863
0.00188973 0.00510226 -0.027401
0.00434637 0.00793685 -0.027779
-0.013984 -0.00718096 -0.0105825
-0.0117163 -0.00982658 0.020598
0.0188973 0.0192752 0.0308025
0.0162516 0.0217318 -0.000188973
0.00283459 -0.0124722 -0.0268341
0.00302356 -0.0120942 -0.0258892
0.00340151 0.0228657 -0.0160627
0.00340151 0.0230547 -0.0168186
0.00264562 0.00151178 -0.0181414
0.00359048 0.00831479 -0.0177634
0.00321253 0.00510226 -0.0238105
0.0183303 0.000566918 0.075778
0.0141729 0.00132281 0.0644397
0.0306136 0.0185193 0.0582036
-0.0419519 -0.0459203 0.0253223
-0.0334482 -0.0353379 0.0644397
-0.00604712 -0.00529123 0.0740773
0.0132281 0.013606 0.0445975
-0.0230547 -0.0262672 -0.00736993
Vibration 3
0.00925966 -0.00944863 0.00888171
0.00907068 -0.0111494 -0.00604712
0.0096376 -0.0115273 -0.00453534
0.0103935 -0.0109604 0.000377945
0.0111494 -0.00888171 0.00774788
0.0102045 -0.00944863 0.0236216
0.0124722 -0.00699199 -0.00264562
0.00869274 -0.0105825 0.0566918
0.00718096 -0.0119053 0.0871164
0.00472431 -0.00718096 0.00604712
-0.0296687 0.0132281 -0.0234326
-0.0419519 0.0202201 -0.0336371
-0.0181414 0.00661404 -0.013984
0.0198421 -0.0156847 0.0175745
0.0308025 -0.0217318 0.027401
-0.0368497 0.0171965 -0.0298577
0.0096376 -0.00869274 -0.00529123
0.0102045 0.00377945 -0.00226767
0.00982658 0.0113384 -0.00113384
0.00925966 0.0062361 -0.00302356
0.00888171 -0.00718096 -0.0062361
0.00907068 -0.0145509 -0.00736993
0.00888171 0.0147399 -0.00245664
-0.0190862 0.00793685 -0.0128501
0.013795 0.00377945 -0.0427078
-0.0100155 -0.00699199 -0.00472431
-0.0141729 0.00585815 0.00396842
-0.00340151 0.00170075 0.00396842
0.0143619 -0.0143619 -0.00434637
-0.0304246 0.0236216 0.0134171
-0.0362827 0.0374166 0.0224877
-0.0253223 0.0325033 0.0222988
-0.00869274 0.0141729 0.0128501
0.0323143 -0.0304246 -0.00944863
-0.00434637 -0.0111494 -0.0147399
0.0119053 0.00585815 -0.0606602
0.00793685 -0.0119053 -0.0160627
0.0128501 -0.00642507 0.00151178
-0.0478101 0.0241885 -0.0379835
-0.0699199 0.0366607 -0.0568808
0.0400622 -0.02759 0.034204
0.0593374 -0.0379835 0.0508336
0.0105825 0.00774788 -0.00075589
0.0100155 0.0215429 0.00132281
0.00831479 -0.0115273 -0.00774788
0.00850377 -0.0236216 -0.00944863
0.00699199 0.00566918 0.00302356
0.00510226 0.027401 0.00396842
0.0143619 0.0173855 -0.0151178
-0.0444086 0.0230547 -0.0336371
-0.0103935 0.0232436 0.0292908
0.00736993 -0.0268341 -0.0249444
-0.0385504 0.0270231 0.0134171
-0.0491329 0.0519675 0.0300466
-0.0296687 0.0428968 0.0291018
0.000188973 0.00982658 0.0124722
-0.0124722 -0.0117163 -0.00113384
Vibration 4
-0.0109604 0.0126612 -0.0103935
-0.0109604 0.0102045 -0.0156847
-0.00888171 0.00869274 -0.00850377
-0.00661404 0.0096376 -0.00566918
-0.00642507 0.0120942 -0.00151178
-0.00907068 0.0130391 0.00170075
-0.00359048 0.0132281 -0.00132281
-0.00982658 0.013606 0.0213539
-0.0105825 0.0132281 0.0394953
-0.00907068 0.0117163 -0.0141729
-0.0257003 0.02759 -0.034204
-0.013606 0.0211649 -0.0315584
0.0166296 -0.00188973 -0.00812582
0.0294797 -0.0153068 0.00793685
0.0158737 -0.0075589 0.00434637
0.0311805 -0.00907068 -0.00396842
-0.00869274 0.00226767 -0.000188973
-0.0192752 -0.00453534 0.00434637
-0.0190862 -0.0183303 0.0134171
-0.00812582 -0.0251334 0.0177634
0.00226767 -0.0158737 0.013984
0.00170075 -0.0020787 0.00510226
-0.00774788 -0.0419519 0.0289128
0.0716206 -0.0398732 0.0300466
0.000188973 0.0107714 -0.00226767
-0.0100155 0.0177634 -0.0041574
-0.00151178 0.00396842 -0.00529123
0.00113384 0.000944863 -0.00566918
-0.00396842 0.00831479 -0.00453534
0.00396842 -0.0062361 -0.00642507
0.0122832 -0.0194642 -0.00831479
0.0149288 -0.0219208 -0.00869274
0.00925966 -0.0115273 -0.00736993
-0.00491329 0.0107714 -0.00377945
-0.0222988 0.0164406 -0.00340151
0.00264562 0.0128501 -0.0041574
-0.0128501 0.00888171 -0.0234326
-0.00321253 0.0153068 0.000944863
-0.0474321 0.0447865 -0.0506447
-0.0258892 0.0326923 -0.0459203
0.0498888 -0.0315584 0.0234326
0.0257003 -0.0175745 0.0164406
-0.027779 0.000188973 0.000566918
-0.0270231 -0.0243775 0.0166296
0.0105825 -0.0200311 0.0177634
0.0100155 0.00434637 0.00188973
-0.0124722 0 0.00907068
0.00793685 -0.089762 0.00548021
-0.0187083 -0.048377 0.0848487
0.0812582 -0.0434637 0.0321253
0.0532903 -0.0585815 0.0651955
0.109226 -0.0393063 0.0162516
0.00151178 -0.00377945 -0.00604712
0.0168186 -0.027779 -0.00925966
0.0215429 -0.0319364 -0.0100155
0.0113384 -0.0132281 -0.00774788
-0.00472431 0.0289128 -0.00453534
Vibration 5
0.00396842 -0.00642507 -0.0130391
0.00377945 -0.00548021 -0.0168186
0.00245664 -0.00453534 -0.0126612
0.000566918 -0.00529123 -0.0115273
0.000566918 -0.00699199 -0.0100155
0.00226767 -0.0075589 -0.0105825
-0.00075589 -0.00812582 -0.00604712
0.00188973 -0.0107714 -0.0062361
0.00151178 -0.013984 -0.00283459
0.000944863 -0.00529123 -0.00680301
-0.0258892 0.000188973 -0.0196532
-0.0357158 0.00491329 -0.0143619
-0.0170075 0.00453534 0.0041574
0.0122832 -0.00151178 0.0188973
0.020787 -0.0062361 0.0130391
-0.0311805 0.0107714 0.00604712
0.00245664 0.000566918 -0.00245664
-0.00680301 -0.013984 -0.000566918
-0.0075589 0.00585815 0.0173855
0.00132281 0.0406291 0.0334482
0.0115273 0.048377 0.0292908
0.0122832 0.0279679 0.0113384
-0.000188973 0.0712427 0.055369
-0.0153068 0.0126612 0.0255113
-0.00264562 -0.0100155 0.0107714
0.0117163 -0.0120942 -0.00907068
0.0115273 -0.0143619 -0.0124722
0.0041574 -0.00869274 -0.0117163
-0.00321253 -0.00226767 -0.00812582
0.0192752 -0.0228657 -0.0170075
0.0198421 -0.0257003 -0.020787
0.0119053 -0.0188973 -0.0196532
0.00377945 -0.0102045 -0.0151178
-0.0120942 0.00604712 -0.00548021
0.0111494 -0.0120942 -0.00907068
-0.00359048 -0.0122832 0.0190862
0.00434637 -0.00510226 -0.0215429
-0.000944863 -0.00944863 -0.00529123
-0.0400622 0.000566918 -0.0338261
-0.0576366 0.00925966 -0.0247554
0.0279679 -0.00264562 0.034204
0.0428968 -0.0100155 0.0230547
-0.013984 -0.0387394 -0.0120942
-0.0154958 -0.00377945 0.0194642
0.0190862 0.0718096 0.0404401
0.0202201 0.034771 0.00831479
-0.0226767 0.05518 0.0733214
-0.000377945 0.102423 0.075778
0.0217318 0.0810692 0.034582
-0.034204 0.0196532 0.0213539
-0.0096376 0.0224877 0.0515895
0.00718096 -0.00188973 0.0162516
0.0251334 -0.027401 -0.0175745
0.0262672 -0.0328812 -0.0243775
0.0120942 -0.020787 -0.0222988
-0.00245664 -0.00472431 -0.0143619
0.0120942 -0.0107714 -0.00718096
Vibration 6
-0.00340151 0.00226767 -0.00925966
-0.00340151 0.000377945 -0.00736993
-0.00132281 -0.00075589 -0.00340151
0.000377945 0 0.00075589
-0.000188973 0.00151178 -0.00151178
-0.00188973 0.00302356 -0.00850377
0.00113384 0.000944863 0.00472431
-0.00132281 0.00510226 -0.0162516
-0.000944863 0.00661404 -0.0238105
-0.00529123 0.00321253 -0.00831479
-0.0102045 0.00245664 -0.00907068
-0.00944863 0.00188973 -0.00377945
-0.00340151 0.0020787 0.00226767
-0.000188973 0.00396842 0.00170075
-0.00132281 0.00472431 -0.00396842
-0.00151178 0.000377945 0.00869274
-0.00113384 -0.00529123 0.00132281
-0.00736993 -0.0449755 -0.00548021
-0.00736993 -0.0565028 0.000566918
-0.000188973 -0.0296687 0.0128501
0.0062361 0.0130391 0.0200311
0.00566918 0.0251334 0.0141729
0.000188973 -0.0461093 0.0224877
0.0100155 -0.00302356 0.020409
0.0020787 0.000944863 0.00566918
0.0364717 -0.041196 -0.0041574
0.0107714 -0.00302356 -0.00529123
-0.00642507 0.0126612 -0.00321253
-0.00113384 -0.000188973 -0.0020787
0.00283459 0.0196532 -0.00699199
-0.0239995 0.0591484 -0.00604712
-0.041385 0.0736993 -0.00377945
-0.0319364 0.0493218 -0.00245664
-0.00151178 -0.00453534 -0.00359048
0.0706758 -0.0393063 -0.0102045
0.00340151 -0.00113384 0.0194642
-0.00491329 -0.000566918 -0.00925966
0.00132281 0.00170075 0.00585815
-0.0141729 0.0020787 -0.0132281
-0.0132281 0.000944863 -0.00396842
0.00340151 0.00472431 0.00548021
0.00132281 0.0062361 -0.00453534
-0.0120942 -0.0678412 -0.0149288
-0.0122832 -0.0874943 -0.00453534
0.0109604 0.0362827 0.0296687
0.0111494 0.0570697 0.0192752
-0.00661404 0.0196532 -0.00888171
0.0171965 -0.11584 -0.0143619
-0.0102045 -0.0531013 0.105447
0.0124722 -0.00604712 0.0266451
0.00491329 -0.00850377 0.0266451
0.020598 0.00264562 0.0170075
0.0171965 0.00699199 -0.00907068
-0.0313695 0.0786126 -0.00699199
-0.0625499 0.104124 -0.00302356
-0.0453534 0.0600933 -0.000944863
0.0221098 -0.0701088 0.00396842
Vibration 7
-0.0096376 0.00529123 0.0062361
-0.00907068 0.00359048 -0.0062361
-0.00604712 0.00151178 -0.00944863
-0.00321253 0.00302356 -0.00888171
-0.00245664 0.00642507 0.00226767
-0.0062361 0.00718096 0.0173855
0.00226767 0.00925966 -0.00302356
-0.00718096 0.0141729 0.047999
-0.00812582 0.0226767 0.0778567
-0.00661404 0.00396842 0.00604712
0.0311805 -0.0115273 0.0313695
0.0423299 -0.0171965 0.0302356
0.0119053 -0.0075589 0.00283459
-0.0283459 0.00812582 -0.0238105
-0.0362827 0.0122832 -0.0211649
0.027779 -0.0151178 0.00585815
-0.00604712 -0.000944863 -0.0075589
-0.0113384 -0.0300466 -0.0120942
-0.0117163 -0.0239995 -0.00245664
-0.00642507 0.0115273 0.0113384
-0.00075589 0.0368497 0.0143619
-0.000566918 0.0302356 0.00491329
-0.00718096 0.0243775 0.0257003
-0.0062361 -0.00377945 -0.0291018
0.0096376 0.0124722 -0.0232436
0.00302356 -0.0188973 -0.0130391
0.00245664 -0.0147399 -0.00850377
0.000566918 -0.00377945 -0.0062361
0.00132281 0 -0.00888171
0.00453534 -0.0234326 -0.00680301
0.00434637 -0.020598 -0.00245664
0.00170075 -0.00831479 0.000377945
-0.000377945 0.000188973 -0.00151178
0.00793685 -0.00245664 -0.00982658
0.00226767 -0.0262672 -0.027779
0.0117163 0.0168186 -0.0389284
-0.0102045 0.00283459 -0.00982658
0.00321253 0.0128501 0.00264562
0.0531013 -0.0188973 0.0508336
0.0736993 -0.0289128 0.0502667
-0.0527234 0.0162516 -0.0453534
-0.0657625 0.0219208 -0.0385504
-0.0156847 -0.0559359 -0.0221098
-0.0158737 -0.0455424 -0.00566918
0.00340151 0.0627389 0.0243775
0.00396842 0.0502667 0.00718096
-0.0230547 0.0521564 0.0179524
-0.00188973 0.00566918 0.0162516
0.00264562 0.02759 0.0578256
0.0162516 -0.013795 -0.0198421
-0.00812582 -0.0115273 -0.0784236
-0.048188 0.0202201 -0.0122832
0.00642507 -0.0325033 -0.00907068
0.0062361 -0.0279679 -0.00132281
0.00113384 -0.00566918 0.00396842
-0.00226767 0.00925966 0.000566918
0.0041574 -0.0149288 -0.00245664
Vibration 8
0.0102045 -0.0041574 -0.000566918
0.0100155 0.00075589 -0.00529123
0.00604712 0.00321253 -0.0062361
0.0020787 0.000944863 -0.00585815
0.0020787 -0.00377945 -0.00226767
0.0062361 -0.00604712 0
-0.0020787 -0.00585815 -0.000377945
0.00585815 -0.0111494 0.00491329
0.00548021 -0.0154958 0.00925966
0.0115273 -0.00491329 0.00396842
0.00869274 -0.00736993 0.00529123
0.00188973 -0.00377945 0.00491329
-0.00226767 0.00264562 0.00264562
0.00434637 0.00302356 0.00434637
0.0115273 -0.00113384 0.00510226
-0.0130391 0.00812582 -0.00075589
0.00604712 0.00642507 -0.00642507
0.00510226 0.0124722 -0.00359048
0.00453534 0.00888171 -0.00377945
0.0062361 -0.00113384 -0.00699199
0.00774788 -0.0041574 -0.0075589
0.00680301 -0.000377945 -0.00718096
0.00604712 -0.00188973 0.00642507
-0.0268341 0.0213539 -0.0111494
-0.00888171 -0.0041574 0.0100155
-0.0107714 0.00888171 -0.00302356
-0.00548021 0.00245664 -0.00113384
-0.00151178 0.00075589 -0.00113384
-0.00264562 0.00472431 -0.00170075
-0.00510226 -0.00170075 0.000377945
-0.000377945 -0.00812582 0.00151178
0.00396842 -0.00982658 0.00151178
0.00321253 -0.00529123 0.000188973
-0.00736993 0.0117163 0.000566918
-0.0187083 0.00472431 -0.00925966
-0.0130391 -0.00850377 0.0183303
0.0132281 0.00264562 -0.00680301
-0.00264562 -0.00982658 0.00113384
0.0109604 -0.0117163 0.0062361
-0.00113384 -0.00510226 0.00529123
0.00359048 0.00661404 0.00472431
0.0162516 -0.000566918 0.0062361
0.00377945 0.0192752 -0.00245664
0.00529123 0.0141729 -0.00283459
0.00718096 -0.00944863 -0.00925966
0.00793685 -0.00340151 -0.00869274
-0.0268341 0.34034 -0.158359
0.0366607 -0.321064 -0.185949
0.00718096 -0.013606 0.401378
-0.0372276 0.0258892 -0.0154958
-0.0164406 0.0334482 -0.0181414
-0.0374166 0.0143619 -0.00774788
-0.00869274 0 0.000566918
0 -0.0113384 0.00264562
0.00774788 -0.0145509 0.00245664
0.00642507 -0.0062361 0.000188973
-0.00699199 0.0173855 0.000944863
Vibration 9
-0.0181414 0.000944863 0.000188973
-0.0175745 -0.0100155 0.00812582
-0.00888171 -0.0156847 0.0103935
0 -0.0105825 0.0154958
0.000188973 0.000377945 0.00907068
-0.00907068 0.00585815 -0.000566918
0.0096376 0.0041574 0.00982658
-0.00793685 0.0181414 -0.0162516
-0.00661404 0.0291018 -0.0309915
-0.0245664 0.00472431 -0.00907068
-0.020409 0.00680301 -0.0100155
-0.0126612 0.00283459 -0.00982658
-0.00907068 -0.0041574 -0.00793685
-0.020598 -0.0020787 -0.0134171
-0.0287238 0.00245664 -0.0143619
0.00699199 -0.0122832 -0.00170075
-0.00907068 -0.0173855 0.00359048
0.000188973 0.00661404 0.00453534
-0.000566918 0.0302356 -0.00113384
-0.0105825 0.0291018 -0.00774788
-0.0190862 -0.00472431 -0.0109604
-0.0185193 -0.0279679 -0.00510226
-0.0120942 0.069164 -0.00718096
0.0355268 -0.0360938 0.0211649
0.0249444 0.000188973 -0.0134171
0.0171965 -0.0141729 0.013795
0.0109604 -0.00793685 0.00907068
0.00812582 -0.0115273 0.00793685
0.0109604 -0.0187083 0.00831479
0.00850377 0.00170075 0.00736993
0.00321253 0.00812582 0.00472431
0.00075589 0.00359048 0.00359048
0.00359048 -0.00642507 0.00529123
0.0217318 -0.0323143 0.00377945
0.0289128 -0.00264562 0.0340151
0.034582 0.00888171 -0.0255113
-0.0249444 -0.0141729 0.00907068
0.0109604 0.0126612 0.00812582
-0.0211649 0.0109604 -0.0096376
-0.00793685 0.00359048 -0.00925966
-0.0228657 -0.00453534 -0.0164406
-0.0372276 0.00340151 -0.0177634
0.00812582 0.00925966 0.0102045
0.00718096 0.0521564 0
-0.0270231 -0.0102045 -0.0173855
-0.0258892 -0.0506447 -0.00680301
-0.0326923 0.181792 -0.0574477
-0.0202201 -0.0149288 -0.0657625
0.0158737 0.0772898 0.110171
0.0580146 -0.0474321 0.034393
0.013795 -0.0616051 0.0311805
0.0563138 -0.0166296 0.0149288
0.0107714 0.00434637 0.00812582
0.00075589 0.0162516 0.00359048
-0.00340151 0.00812582 0.00113384
0.0020787 -0.0100155 0.0041574
0.0111494 -0.0292908 -0.00075589
Vibration 10
-0.00321253 -0.0020787 -0.0221098
-0.00283459 -0.00699199 -0.0330702
0.00226767 -0.0102045 -0.0228657
0.0075589 -0.00774788 -0.0130391
0.00869274 -0.00283459 0
0.00245664 0.000944863 -0.00453534
0.0145509 -0.00264562 0.0181414
0.0020787 0.0111494 0.0166296
0.00188973 0.0226767 0.0368497
-0.00718096 0.000377945 -0.0198421
0.00321253 -0.0134171 -0.0041574
0.00585815 -0.0153068 0.00642507
-0.00359048 -0.00359048 0.000566918
-0.0181414 0.0119053 -0.0179524
-0.0192752 0.0126612 -0.02759
0.00340151 -0.00869274 0.0153068
0.00264562 -0.0126612 -0.0143619
-0.00774788 0.0239995 0.00188973
-0.00812582 0.0328812 0.0156847
0.00188973 0.00302356 0.0126612
0.0126612 -0.0394953 -0.00434637
0.0128501 -0.0464873 -0.0177634
0.00113384 0.0164406 0.0266451
0.0020787 -0.00170075 0.0168186
0.0177634 -0.00869274 0.0289128
-0.00869274 0.00888171 -0.013606
-0.00718096 0.0105825 -0.00850377
0.00472431 -0.00377945 -0.0107714
0.00944863 -0.00907068 -0.0120942
-0.0217318 0.0302356 -0.00226767
-0.0228657 0.0338261 0.000566918
-0.00831479 0.0151178 -0.00283459
0.00548021 -0.00377945 -0.00869274
0.00585815 -0.0062361 -0.0109604
-0.0175745 -0.0105825 -0.0512116
0.0239995 -0.0179524 0.0952422
-0.00604712 -0.00907068 -0.0438416
0.0151178 0 0.0292908
0.0103935 -0.0230547 0
0.0156847 -0.0262672 0.0194642
-0.027779 0.0228657 -0.0241885
-0.0289128 0.0226767 -0.0394953
-0.0156847 0.0461093 0.00359048
-0.0168186 0.0634948 0.0287238
0.020976 -0.0661404 -0.00699199
0.020976 -0.0771008 -0.0304246
-0.00793685 -0.0160627 0.0472432
0.00113384 0.0534792 0.0506447
0.0102045 0.0213539 -0.0105825
0.0145509 -0.0120942 0.0349599
-0.00453534 -0.0119053 -0.00226767
-0.00359048 0.0224877 0.020598
-0.0319364 0.0445975 0.000377945
-0.034771 0.0510226 0.00585815
-0.00812582 0.0162516 -0.00075589
0.0156847 -0.0170075 -0.0111494
-0.00283459 0.0264562 0.0171965
Vibration 11
0.00396842 -0.00377945 -0.0445975
0.0041574 0.00151178 -0.0633058
0.000944863 0.00340151 -0.0377945
-0.000944863 0.000944863 -0.0105825
-0.00132281 -0.00377945 -0.0151178
0.00170075 -0.00529123 -0.0177634
-0.00642507 -0.0062361 -0.013606
0 -0.00680301 0.0175745
-0.00151178 -0.00661404 0.0517785
0.00491329 -0.00434637 -0.034582
0.00661404 -0.0228657 -0.0166296
0.00453534 -0.0228657 0.00245664
-0.000944863 -0.00377945 0.00245664
-0.00340151 0.0149288 -0.0149288
0.000377945 0.0126612 -0.0326923
-0.00396842 -0.00529123 0.0239995
0.00113384 0.00529123 -0.0249444
-0.0128501 0.0241885 -0.0113384
-0.0130391 0.0194642 0.00359048
0.00113384 -0.00491329 0.00453534
0.0151178 -0.0215429 -0.00774788
0.0147399 -0.0154958 -0.0224877
0.00113384 -0.0147399 0.0190862
-0.0179524 0.0217318 0.0192752
-0.0147399 -0.00377945 -0.000566918
0.0130391 -0.013795 0.0202201
0.00453534 -0.0102045 0.00888171
-0.00604712 0.0020787 0.0105825
-0.0041574 0.00736993 0.00642507
0.0117163 -0.0162516 0.00491329
0.00453534 -0.00585815 0.00529123
-0.00869274 0.00982658 0.00831479
-0.0128501 0.0126612 0.0115273
-0.00188973 0.0175745 0.00944863
0.0402512 0.0393063 0.121887
-0.0221098 -0.0041574 -0.0224877
0.0075589 0.00321253 -0.0901399
-0.00718096 -0.0096376 -0.0160627
0.0096376 -0.0377945 -0.0185193
0.00718096 -0.0372276 0.0166296
-0.0075589 0.0304246 -0.0141729
0.000188973 0.0249444 -0.0436527
-0.0224877 0.0408181 -0.0124722
-0.0241885 0.0340151 0.013984
0.0260782 -0.0391173 -0.0062361
0.0255113 -0.027401 -0.0317474
-0.00245664 -0.0340151 0.0308025
0.0119053 -0.00226767 0.0325033
-0.00566918 -0.0173855 0.0041574
-0.0200311 0.0153068 0.0377945
-0.0122832 0.0258892 -0.00680301
-0.0313695 0.0417629 0.0255113
0.020976 -0.0300466 0.00264562
0.00888171 -0.0103935 0.00283459
-0.0153068 0.0190862 0.00793685
-0.020976 0.0238105 0.013606
-0.00529123 -0.0651955 -0.0612271
Vibration 12
0.00170075 -0.00907068 -0.0117163
0.00188973 -0.0105825 -0.0170075
0.00321253 -0.0111494 -0.00925966
0.00566918 -0.0105825 0.00510226
0.00585815 -0.00925966 0.00850377
0.0041574 -0.00774788 -0.00113384
0.00869274 -0.00982658 0.0196532
0.00434637 -0.00359048 -0.000377945
0.00453534 0.00075589 -0.000377945
-0.0020787 -0.00718096 -0.0126612
-0.00245664 -0.0134171 -0.00699199
-0.00529123 -0.0122832 -0.00226767
-0.00831479 -0.00529123 -0.00321253
-0.0103935 0.0020787 -0.0103935
-0.00718096 0.000188973 -0.0151178
-0.00925966 -0.00585815 0.00396842
0.00283459 -0.00907068 -0.0132281
0.00491329 -0.0599043 -0.0283459
0.00491329 -0.0587705 -0.0292908
0.00245664 0 -0.0132281
0.000188973 0.0559359 0.00226767
0.000377945 0.0491329 0.00170075
0.0020787 0.00548021 -0.0109604
0.000566918 -0.00566918 0.0154958
0.0158737 -0.00453534 0.00113384
-0.0230547 0.0478101 0.0147399
-0.013984 0.0308025 0.0100155
0.00529123 -0.00529123 0.00377945
0.00831479 -0.0122832 0.00396842
-0.0247554 0.0512116 0.0126612
-0.0130391 0.0302356 0.00718096
0.0117163 -0.0132281 -0.00188973
0.020409 -0.0300466 -0.00302356
0.013984 -0.0190862 0.00170075
-0.0317474 0.0583925 0.0383614
0.0190862 -0.00680301 0.0198421
0.00075589 -0.0111494 -0.0281569
0.00925966 -0.00850377 0.0251334
0 -0.0194642 -0.00661404
-0.00472431 -0.0168186 0.00226767
-0.0143619 0.00888171 -0.0122832
-0.00831479 0.00491329 -0.0196532
0.00585815 -0.0971319 -0.0389284
0.00736993 -0.101478 -0.0417629
-0.00226767 0.104124 0.0149288
-0.00170075 0.089573 0.0132281
-0.00321253 0.0105825 -0.0113384
0.00264562 0.00396842 -0.0115273
0.00699199 0.00736993 -0.00566918
0.00453534 -0.0109604 0.0260782
-0.00472431 -0.0122832 0.0158737
0.00850377 0.00548021 0.0132281
-0.0425188 0.0822031 0.0190862
-0.0221098 0.0472432 0.00944863
0.0230547 -0.0328812 -0.00736993
0.0379835 -0.0610381 -0.00944863
-0.020409 0.0504557 -0.00472431
Vibration 13
-0.0130391 0.00869274 0.0134171
-0.0132281 0.00283459 0.0187083
-0.00925966 0 -0.00151178
-0.00529123 0.00226767 -0.0238105
-0.00566918 0.0102045 -0.034582
-0.0102045 0.0103935 -0.00888171
0.0020787 0.0177634 -0.0633058
-0.0103935 0.0105825 -0.00340151
-0.0107714 0.00888171 0.00340151
-0.0062361 0.00434637 0.0213539
-0.0111494 0.0194642 0.00529123
0.00529123 0.0113384 0.00396842
0.0255113 -0.0111494 0.0173855
0.0355268 -0.0289128 0.0364717
0.0188973 -0.0190862 0.0379835
0.0391173 -0.0168186 0.0115273
-0.0096376 -0.00510226 -0.0020787
-0.00907068 -0.00925966 -0.00377945
-0.00907068 -0.00604712 -0.0041574
-0.0105825 0.00132281 -0.00283459
-0.0111494 0.00132281 -0.00245664
-0.0109604 -0.0020787 -0.00226767
-0.0111494 0.0115273 -0.00132281
-0.0292908 0.00982658 -0.0572587
0.0308025 -0.00075589 -0.00680301
-0.00718096 -0.0141729 -0.0126612
-0.00888171 -0.0120942 -0.0126612
-0.00245664 -0.00642507 -0.0111494
0.00604712 -0.00396842 -0.020598
-0.0151178 -0.0115273 -0.00604712
-0.0175745 -0.0020787 0.0041574
-0.0122832 0.00434637 0.00642507
-0.00377945 0.00075589 -0.00132281
0.0236216 -0.00925966 -0.0222988
0.00566918 0.0198421 0.0538572
0.0525344 -0.0020787 0.0678412
-0.0170075 0.000566918 0.0360938
0.00396842 0.0279679 -0.0718096
-0.0287238 0.0387394 -0.00604712
0.000566918 0.0228657 -0.00831479
0.0566918 -0.0508336 0.0508336
0.0251334 -0.0309915 0.0504557
-0.00793685 -0.0134171 -0.00434637
-0.00812582 -0.00831479 -0.00548021
-0.0119053 0.00510226 -0.00188973
-0.0119053 -0.000944863 -0.00151178
-0.0156847 0.0166296 -0.0020787
-0.013795 0.0122832 -0.0020787
-0.00377945 0.0145509 0.0020787
-0.0436527 0.0253223 -0.0874943
0.000188973 0.0417629 -0.0975099
-0.0924076 -0.0177634 -0.0360938
-0.0190862 -0.0185193 -0.00774788
-0.0239995 -0.000188973 0.0102045
-0.0145509 0.0119053 0.013606
0.0020787 0.00434637 0
-0.0179524 -0.0457314 -0.069164
Vibration 14
-0.00850377 0.00283459 -0.0226767
-0.00869274 0.000944863 -0.0355268
-0.00793685 0.000188973 -0.0151178
-0.00510226 0.000188973 0.0177634
-0.00472431 0.000377945 0.0349599
-0.00699199 0.00321253 0.00188973
0 -0.00434637 0.0786126
-0.00604712 0.00585815 -0.0134171
-0.00510226 0.0075589 -0.0334482
-0.00396842 0.000377945 -0.020787
-0.0171965 0.00226767 -0.0264562
-0.00075589 -0.00774788 -0.00491329
0.0264562 -0.0170075 0.0192752
0.0393063 -0.0181414 0.0241885
0.0239995 -0.00944863 0.00434637
0.0442196 -0.0291018 0.0451645
-0.00812582 -0.00188973 -0.0141729
-0.0158737 0.00113384 -0.00850377
-0.0162516 0.00170075 0.000566918
-0.00925966 -0.00170075 0.00377945
-0.00151178 -0.00774788 -0.00245664
-0.00170075 -0.0075589 -0.0115273
-0.0096376 0.00188973 0.0153068
-0.0474321 0.0336371 -0.034771
0.00680301 0.00718096 -0.00151178
0.00566918 0.0100155 0.013984
0.00472431 0.0100155 0.0113384
0.0020787 0.000188973 0.00907068
-0.00359048 -0.00113384 0.0145509
0.00604712 0.0164406 0.00680301
0.0075589 0.00925966 -0.00132281
0.00793685 -0.0041574 -0.00472431
0.00453534 -0.00774788 0.00075589
-0.00302356 -0.0075589 0.0120942
0.000566918 -0.0103935 -0.0264562
0.0113384 0.0177634 -0.0406291
-0.00944863 0.000377945 -0.0589595
0.00113384 -0.00396842 0.096754
-0.0406291 0.0111494 -0.0472432
-0.0100155 -0.0075589 -0.00774788
0.0636838 -0.027779 0.0457314
0.0351489 -0.0103935 0.00850377
-0.0221098 0.00359048 -0.0115273
-0.0221098 0.00491329 0.00472431
0.00453534 -0.0120942 0
0.00396842 -0.0107714 -0.0154958
-0.0177634 -0.00075589 0.0200311
-0.00472431 0.0062361 0.020598
-0.00699199 0.00302356 0.0147399
-0.062361 0.0404401 -0.041196
-0.0100155 0.0708647 -0.114328
-0.133226 0.0334482 -0.00340151
0.00680301 0.0266451 0.00925966
0.00907068 0.013984 -0.00491329
0.0102045 -0.0115273 -0.0113384
0.00359048 -0.0170075 -0.00170075
0.0113384 0.027779 0.0508336
Vibration 15
0.0075589 -0.00151178 0.0124722
0.00736993 0.00302356 -0.000944863
0.00170075 0.00642507 -0.0160627
-0.00359048 0.00245664 -0.00869274
-0.00226767 -0.0020787 0.0362827
0.00264562 -0.00377945 0.020409
0.00472431 -0.00774788 0.0907068
0.00359048 -0.0115273 -0.00302356
0.0041574 -0.0226767 -0.0334482
0.0103935 -0.00264562 0.0126612
0.0164406 -0.00434637 0.0160627
0.00888171 0.000188973 0.0075589
-0.00396842 0.00604712 -0.00359048
-0.00453534 0.0041574 -0.0020787
0.00245664 0.000188973 0.00566918
-0.0200311 0.0156847 -0.0200311
0.00188973 0.0119053 -0.0175745
-0.00774788 0.0151178 -0.0103935
-0.00812582 0.00944863 0.00075589
0.00226767 0.00075589 0.0041574
0.0122832 0.00434637 -0.000566918
0.0115273 0.0102045 -0.0117163
0.00283459 -0.0158737 0.0149288
0.0134171 -0.00566918 0.00982658
0.0340151 0.0164406 -0.0326923
-0.0238105 -0.000188973 -0.0149288
-0.013795 -0.0190862 -0.0202201
-0.0230547 0.013606 -0.0141729
-0.00812582 0.00245664 -0.0224877
0.00264562 -0.054991 -0.0217318