[Molden Format]
[FREQ]
-343.9
13.9
22.0
26.7
28.3
33.6
35.1
45.8
48.8
49.9
52.3
62.5
72.4
83.4
101.8
117.1
124.9
136.8
147.1
163.7
171.9
180.4
194.8
208.7
232.1
251.1
253.5
255.1
259.5
292.5
310.6
321.8
337.3
347.2
350.4
352.0
357.4
369.9
380.6
398.2
430.1
441.6
480.1
490.3
511.9
523.0
525.3
534.8
545.0
567.0
579.0
604.7
611.3
614.5
617.0
630.2
644.6
654.0
662.2
671.5
707.9
715.7
721.8
756.6
773.4
801.7
820.0
848.9
862.1
880.4
882.6
893.4
899.2
901.2
924.0
957.8
975.2
982.4
1006.5
1009.3
1014.1
1016.0
1019.3
1020.1
1033.1
1049.3
1070.6
1071.3
1079.7
1081.4
1097.7
1126.4
1174.1
1178.3
1179.3
1179.4
1183.8
1199.2
1214.2
1227.9
1260.6
1266.1
1266.8
1269.0
1273.2
1277.7
1284.1
1286.4
1295.4
1302.2
1310.3
1324.7
1325.7
1337.4
1343.0
1346.8
1350.8
1352.3
1362.7
1365.4
1382.8
1394.5
1427.5
1501.2
1512.6
1522.2
1528.9
1533.8
1561.7
1562.6
1591.2
1597.9
1602.5
1658.8
1677.0
1698.0
1698.2
1700.5
1702.5
1707.9
1708.9
1849.8
1968.2
2451.4
2651.6
2654.0
2666.4
2674.3
2706.8
2736.4
2741.1
2743.9
2744.8
2745.8
2748.7
2750.1
2751.5
2758.3
2758.6
2762.5
2765.1
2766.5
2768.0
2770.3
2779.2
       
[FR-COORD]
C -1.93829 -2.3066 -1.35323
C 0.710915 -2.3066 -1.35323
C 2.03561 -0.0309915 -1.35323
N 0.813338 2.22421 -1.30675
C -1.81149 2.27806 -1.24892
C -3.23786 -0.00907068 -1.31771
N -2.91887 4.58032 -1.2149
C -5.90577 0.111494 -1.33623
N -8.09313 0.194453 -1.33358
C -3.28038 -4.72677 -1.35569
C -2.74596 -6.51275 -3.24031
C -3.99564 -8.81047 -3.27282
C -5.78918 -9.32051 -1.37837
C -6.3302 -7.57327 0.521753
C -5.06522 -5.26723 0.510604
O -6.86008 -11.635 -1.62592
C 4.81616 -0.0260782 -1.25119
C 5.99364 -0.787827 0.98398
C 8.61734 -0.806535 1.13573
C 10.069 -0.0772898 -0.947131
C 8.87774 0.668774 -3.184
C 6.25348 0.707324 -3.33669
C 12.8809 -0.0568808 -0.784992
C -8.798 -12.2925 0.114517
C -1.57924 6.63691 -0.606791
C -0.362072 7.23179 1.99309
C 0.140974 5.12059 3.72182
C 2.61462 4.75228 4.56614
C 2.00273 5.20279 -1.63745
C -1.7873 3.47558 4.45314
C -1.21755 1.40558 5.97361
C 1.26234 0.991728 6.76427
C 3.17247 2.67151 6.07793
O 4.11242 5.24116 -2.22855
O 0.141352 9.41499 2.39466
O -2.03712 8.6368 -2.06131
H 1.74252 -4.08653 -1.3247
H 4.10637 6.06961 4.02077
H -1.35078 -6.07585 -4.69748
H -3.6262 -10.2153 -4.72602
H -7.71481 -7.97011 1.9793
H -5.4785 -3.87451 1.97552
H 4.85716 -1.34889 2.60707
H 9.53669 -1.38555 2.87975
H 10.0027 1.24911 -4.80501
H 5.32222 1.33868 -5.0639
H 13.5832 1.87801 -0.469408
H 13.7674 -0.748143 -2.53223
H 13.6043 -1.22832 0.766851
H -9.35603 -14.1801 -0.548398
H -10.3914 -10.9795 -0.020409
H -8.05534 -12.3938 2.04128
H -3.72919 3.79287 3.8267
H -2.70836 0.10299 6.53335
H 1.7068 -0.647231 7.92797
H 5.10339 2.3597 6.7176
H -1.42485 10.2616 -1.26668

[FR-NORM-COORD]
Vibration 1
-0.000188973 -0.0198421 0.00472431
-0.0185193 -0.0580146 0.00075589
-0.0143619 -0.0436527 0.0164406
-0.0243775 -0.0888171 0.0362827
0.0215429 -0.0472432 0.0296687
-0.00812582 -0.000944863 0.0194642
0.047999 0.020598 -0.103746
-0.00585815 -0.00377945 0.00736993
-0.00548021 0.00188973 -0.000377945
-0.0120942 -0.00888171 -0.0020787
-0.00718096 -0.00510226 -0.00340151
-0.00377945 -0.00604712 -0.00151178
-0.00245664 -0.00359048 0
-0.00472431 -0.00585815 0.00113384
-0.00661404 -0.00548021 0.00151178
-0.0020787 -0.0041574 0.000188973
-0.00907068 -0.0168186 0.00302356
-0.00132281 -0.00529123 0.00283459
-0.000944863 0.00075589 0.00113384
-0.00321253 0.00075589 -0.000188973
-0.00812582 -0.000944863 0.00226767
-0.00982658 -0.00907068 0.00434637
-0.00245664 0.00113384 -0.00170075
-0.00170075 -0.00245664 0.000566918
-0.214295 0.0351489 0.0723765
-0.0226767 -0.00396842 -0.00321253
-0.00226767 -0.00302356 -0.00888171
-0.00302356 0.000188973 -0.00642507
0.221476 0.289506 -0.00491329
-0.000566918 -0.00453534 -0.00340151
0.000188973 -0.000566918 0.000188973
0.00132281 0.00151178 0
-0.00132281 0.0020787 -0.00226767
0.169697 -0.0187083 -0.0721875
0.00944863 -0.00850377 -0.0113384
-0.0886281 0.0362827 0.0410071
-0.0217318 -0.0583925 -0.0198421
-0.00321253 -0.00151178 -0.0107714
-0.00812582 -0.00170075 -0.00321253
-0.00321253 -0.00736993 0.000188973
-0.00340151 -0.00774788 0.00151178
-0.00359048 -0.0062361 0.00188973
0.00302356 -0.00491329 0.00529123
0.00075589 0.0041574 0.000944863
-0.0119053 0.00283459 0.00132281
-0.0126612 -0.00944863 0.00585815
-0.00245664 0.00075589 -0.00226767
-0.0041574 0.000944863 -0.00226767
-0.00245664 0.00075589 -0.0020787
-0.00264562 -0.00245664 0.00170075
-0.00113384 -0.00188973 0.000377945
-0.00132281 -0.00188973 0.000377945
-0.000566918 -0.00907068 0.00226767
0.00151178 -0.00113384 0.00302356
0.00226767 0.0020787 0.00075589
0 0.00377945 -0.00434637
-0.157603 0.0372276 0.0935414
Vibration 2
-0.00831479 -0.00793685 0.00604712
-0.00831479 -0.00699199 0.00680301
-0.00907068 -0.00642507 0.00850377
-0.00982658 -0.00680301 0.00736993
-0.00982658 -0.00793685 0.0107714
-0.00907068 -0.00850377 0.0113384
-0.0111494 -0.00888171 0.0119053
-0.00925966 -0.00944863 0.0143619
-0.00925966 -0.0105825 0.0168186
-0.0075589 -0.00831479 -0.00283459
-0.00604712 -0.000566918 -0.0096376
-0.00680301 0 -0.020787
-0.00907068 -0.0075589 -0.0249444
-0.0100155 -0.0156847 -0.0177634
-0.00925966 -0.0160627 -0.00661404
-0.0100155 -0.00585815 -0.0364717
-0.00925966 -0.00548021 0.0130391
-0.013795 -0.000944863 0.0170075
-0.0141729 0.000566918 0.0228657
-0.0100155 -0.00245664 0.0247554
-0.00548021 -0.00718096 0.020787
-0.00510226 -0.00869274 0.0149288
-0.0103935 -0.00075589 0.0311805
-0.013606 -0.0117163 -0.0427078
-0.0113384 -0.00529123 -0.00075589
-0.000566918 0.00925966 -0.00925966
0.0251334 0.0188973 -0.00491329
0.0325033 0.0442196 -0.0153068
-0.0122832 -0.00718096 -0.00699199
0.0434637 0.00396842 0.00982658
0.0695419 0.0147399 0.0147399
0.0769118 0.0402512 0.00510226
0.0583925 0.054991 -0.0100155
-0.013606 -0.00812582 -0.0117163
-0.0115273 0.013795 -0.0192752
-0.0194642 -0.0122832 -0.00793685
-0.00774788 -0.00661404 0.00566918
0.0181414 0.0555579 -0.027401
-0.00453534 0.00510226 -0.00642507
-0.00566918 0.00604712 -0.0264562
-0.0113384 -0.0217318 -0.020598
-0.0100155 -0.0222988 -0.00075589
-0.0171965 0.00170075 0.0156847
-0.0177634 0.00377945 0.0258892
-0.0020787 -0.0096376 0.0222988
-0.00151178 -0.0124722 0.0115273
-0.0120942 0 0.0306136
-0.00585815 -0.0020787 0.0340151
-0.0132281 0.00132281 0.0340151
-0.0147399 -0.00793685 -0.0525344
-0.0119053 -0.00925966 -0.0389284
-0.0166296 -0.0217318 -0.0421409
0.0376055 -0.0158737 0.0179524
0.0840928 0.00302356 0.0262672
0.0971319 0.0489439 0.00944863
0.0644397 0.0748331 -0.0183303
-0.0213539 -0.00736993 -0.0164406
Vibration 3
0.0041574 -0.00566918 0.0151178
0.0041574 -0.00604712 0.00907068
0.00396842 -0.0062361 0.00869274
0.00434637 -0.00604712 0.0115273
0.00453534 -0.00548021 0.0154958
0.00434637 -0.00585815 0.0241885
0.00491329 -0.00529123 0.0062361
0.0041574 -0.00604712 0.041385
0.0041574 -0.00661404 0.0585815
0.0041574 -0.00585815 0.00548021
-0.00340151 0.00907068 -0.0109604
-0.00472431 0.0100155 -0.0253223
0.00188973 -0.00434637 -0.0226767
0.0105825 -0.0198421 -0.00604712
0.0115273 -0.0202201 0.00812582
-0.000944863 -0.00113384 -0.0387394
0.00434637 -0.00548021 0
0.0130391 0.0166296 0.00283459
0.013795 0.0158737 -0.00850377
0.00548021 -0.00661404 -0.0221098
-0.00340151 -0.02759 -0.0243775
-0.00396842 -0.0268341 -0.0134171
0.0062361 -0.00812582 -0.034393
0.0041574 -0.0141729 -0.0377945
0.00548021 -0.00226767 -0.00604712
0.0102045 0.00982658 -0.0113384
-0.00774788 0.0190862 0.00510226
-0.0122832 0.0062361 0.0124722
0.00585815 -0.00793685 -0.00151178
-0.0219208 0.0396842 0.013795
-0.041385 0.0476211 0.0319364
-0.0462983 0.034771 0.0402512
-0.0315584 0.013984 0.0300466
0.00566918 -0.0124722 -0.00283459
0.0257003 0.00925966 -0.027779
0.00434637 -0.0096376 -0.0158737
0.00396842 -0.0062361 0.00396842
-0.000944863 -0.0096376 0.00472431
-0.00850377 0.0202201 -0.0124722
-0.0111494 0.0219208 -0.0381725
0.0162516 -0.0313695 -0.00359048
0.0179524 -0.0319364 0.0211649
0.0194642 0.0340151 0.0132281
0.020787 0.0330702 -0.00642507
-0.00982658 -0.0445975 -0.0349599
-0.0111494 -0.0428968 -0.0153068
0.00888171 -0.0075589 -0.0442196
-0.00151178 -0.0151178 -0.0355268
0.0117163 -0.00302356 -0.0330702
-0.00113384 -0.00718096 -0.0531013
0.00566918 -0.0105825 -0.0200311
0.0109604 -0.0328812 -0.041385
-0.0181414 0.0493218 0.00680301
-0.0529123 0.0640617 0.0394953
-0.0614161 0.0408181 0.0548021
-0.0353379 0.00377945 0.0366607
0.0102045 -0.00642507 -0.0268341
Vibration 4
-0.00869274 0.0103935 -0.0122832
-0.00888171 0.00793685 -0.0192752
-0.00642507 0.00661404 -0.0119053
-0.00434637 0.0075589 -0.00812582
-0.00434637 0.00982658 -0.00359048
-0.00661404 0.0109604 -0.000188973
-0.00245664 0.0107714 -0.00170075
-0.00680301 0.0115273 0.0192752
-0.00680301 0.0111494 0.0379835
-0.00774788 0.00982658 -0.013795
-0.0298577 0.0249444 -0.034393
-0.020409 0.0198421 -0.0298577
0.0126612 -0.00075589 -0.00396842
0.0313695 -0.013606 0.0132281
0.020409 -0.00736993 0.00774788
0.0232436 -0.00604712 0.00075589
-0.00680301 -0.000377945 -0.00226767
-0.0198421 -0.0245664 -0.00340151
-0.020787 -0.0366607 0.00850377
-0.00831479 -0.0247554 0.0211649
0.00491329 0.000566918 0.0226767
0.00548021 0.0126612 0.0109604
-0.00888171 -0.0396842 0.0338261
0.0661404 -0.034204 0.0379835
0 0.00944863 -0.00245664
0.00491329 0.0062361 -0.00396842
0.00170075 0.00396842 -0.00585815
0.00226767 -0.00585815 -0.0120942
-0.00283459 0.00585815 -0.00793685
-0.00283459 0.0105825 -0.00245664
-0.00680301 0.00736993 -0.00529123
-0.00642507 -0.00264562 -0.0117163
-0.00188973 -0.00925966 -0.0151178
-0.00377945 0.00491329 -0.0119053
0.0103935 0.00491329 -0.00377945
-0.000188973 0.0105825 -0.000566918
-0.0107714 0.00661404 -0.0281569
0.00585815 -0.0111494 -0.0149288
-0.0536682 0.0404401 -0.0525344
-0.0372276 0.0308025 -0.0447865
0.0544241 -0.0283459 0.0309915
0.034771 -0.0170075 0.020787
-0.0294797 -0.034393 -0.013606
-0.0309915 -0.0561249 0.00736993
0.0145509 0.0102045 0.0328812
0.0160627 0.0315584 0.0120942
-0.000944863 -0.0461093 0.05518
-0.00453534 -0.02759 0.0313695
-0.0213539 -0.0580146 0.0260782
0.0704868 -0.0359048 0.0394953
0.0506447 -0.0487549 0.0782347
0.107336 -0.0372276 0.0219208
-0.00302356 0.0181414 0.00226767
-0.0103935 0.0126612 -0.00245664
-0.0096376 -0.00510226 -0.0141729
-0.00132281 -0.0170075 -0.020409
0.00340151 0.00944863 -0.00075589
Vibration 5
0.00548021 -0.00774788 -0.00377945
0.00548021 -0.00774788 -0.0117163
0.0041574 -0.00718096 -0.0113384
0.00302356 -0.0075589 -0.0115273
0.00340151 -0.00793685 -0.00453534
0.00434637 -0.00850377 0.0020787
0.00359048 -0.00774788 -0.00188973
0.0041574 -0.0109604 0.0181414
0.0041574 -0.0132281 0.0328812
0.00170075 -0.00585815 0
-0.0289128 0.00434637 -0.0177634
-0.041196 0.0107714 -0.0183303
-0.0215429 0.00736993 -0.00075589
0.0122832 -0.0041574 0.0194642
0.0234326 -0.0103935 0.0196532
-0.0396842 0.0162516 -0.00566918
0.0041574 0.000944863 -0.00377945
-0.00188973 0.0247554 0.00736993
-0.00264562 0.0478101 0.0221098
0.00283459 0.0468652 0.0255113
0.00888171 0.0179524 0.0126612
0.00944863 -0.00529123 -0.00226767
0.00151178 0.0782347 0.0432747
-0.0243775 0.0164406 0.0115273
0.00793685 -0.00925966 -0.00396842
0.0171965 -0.0151178 -0.00699199
0.00944863 -0.0173855 -0.00736993
0.00774788 -0.0260782 -0.00604712
0.00075589 -0.00699199 -0.0213539
0.00340151 -0.0107714 -0.00812582
-0.00434637 -0.0132281 -0.00869274
-0.0062361 -0.0221098 -0.00793685
-0.000188973 -0.0283459 -0.0062361
-0.0041574 -0.00699199 -0.0381725
0.0296687 -0.0177634 -0.00831479
0.00434637 -0.00661404 0.000944863
0.00566918 -0.00774788 -0.0158737
0.0122832 -0.0308025 -0.00472431
-0.0440306 0.00718096 -0.0313695
-0.0663294 0.0190862 -0.0326923
0.0292908 -0.00774788 0.034582
0.0489439 -0.0181414 0.034204
-0.0062361 0.0268341 0.00510226
-0.00736993 0.0676522 0.0311805
0.0130391 0.0147399 0.0143619
0.013795 -0.0262672 -0.0122832
-0.0211649 0.0886281 0.0304246
0.0200311 0.0721875 0.054991
0.0041574 0.0999665 0.0583925
-0.0472432 0.0266451 0.00151178
-0.0154958 0.0300466 0.0421409
-0.0020787 -0.00661404 0.00170075
0.00453534 -0.00377945 -0.00850377
-0.00925966 -0.00812582 -0.0096376
-0.0122832 -0.0241885 -0.00831479
-0.00170075 -0.034771 -0.00491329
0.0113384 -0.00888171 0.000377945
Vibration 6
-0.0183303 0.00888171 -0.00548021
-0.0175745 0.00453534 -0.00151178
-0.013984 0.00170075 -0.00151178
-0.0103935 0.00359048 -0.00132281
-0.0100155 0.00869274 0.0020787
-0.0143619 0.0111494 -0.00472431
-0.00340151 0.0119053 0.0126612
-0.013984 0.0175745 -0.0126612
-0.013795 0.0234326 -0.020976
-0.0162516 0.00793685 -0.00907068
0.0126612 -0.00226767 0.00850377
0.0285349 -0.0107714 0.0128501
0.013984 -0.00925966 -0.000377945
-0.020409 0.00359048 -0.0221098
-0.0351489 0.0117163 -0.0260782
0.0376055 -0.0213539 0.0100155
-0.0141729 0.000566918 0.00075589
-0.0166296 0.041574 0.0158737
-0.0168186 0.0436527 0.0185193
-0.0149288 0.00491329 0.0062361
-0.0126612 -0.0364717 -0.00869274
-0.0126612 -0.0381725 -0.0117163
-0.0151178 0.00793685 0.00907068
0.0332592 -0.02759 0.00283459
0.00850377 0.00548021 0.0109604
0.0317474 -0.00661404 0.00283459
0.0196532 -0.00812582 0.00434637
0.0162516 -0.0160627 0.0109604
-0.00377945 -0.00075589 -0.0185193
0.0119053 0 0.00264562
0.00075589 0.000188973 0.00718096
-0.00283459 -0.00736993 0.0141729
0.00491329 -0.0153068 0.0160627
-0.0109604 -0.00944863 -0.0440306
0.0589595 -0.0115273 -0.00283459
0.00434637 0.0119053 0.0211649
-0.020409 0.00302356 0.00188973
0.0221098 -0.0219208 0.0128501
0.0241885 -0.0041574 0.0188973
0.0529123 -0.0194642 0.027401
-0.0349599 0.00661404 -0.034771
-0.0604712 0.0202201 -0.041196
-0.0185193 0.0723765 0.0253223
-0.0183303 0.075967 0.0300466
-0.0111494 -0.0668963 -0.0185193
-0.0111494 -0.069164 -0.0236216
-0.0166296 0.0120942 -0.0122832
-0.0122832 -0.0117163 0.0183303
-0.0166296 0.0262672 0.0236216
0.062172 -0.041574 0.0185193
0.0179524 -0.0489439 -0.0230547
0.0200311 0.0020787 0.00944863
0.0143619 0.00642507 -0.00170075
-0.00548021 0.00642507 0.00548021
-0.0117163 -0.00680301 0.0183303
0.00188973 -0.020787 0.0224877
0.0213539 0.00642507 0.0196532
Vibration 7
-0.00151178 -0.00075589 -0.0156847
-0.00170075 -0.00434637 -0.0111494
-0.000188973 -0.00510226 -0.00151178
0.00170075 -0.00453534 0.00453534
0.00188973 -0.00151178 -0.00585815
0.000188973 0 -0.0164406
0.00472431 -0.000377945 -0.00529123
0.000188973 -0.000188973 -0.0289128
0.000188973 -0.00132281 -0.041196
-0.00566918 0.00132281 -0.0153068
-0.0326923 0.0105825 -0.0311805
-0.0353379 0.0117163 -0.0249444
-0.00869274 0.00377945 -0.00170075
0.0168186 -0.00396842 0.0124722
0.0171965 -0.0041574 0.00510226
-0.0117163 0.00453534 0.00396842
-0.000188973 -0.00434637 -0.00132281
0.00226767 0.0336371 0.0100155
0.00264562 0.0351489 0.00604712
-0.000377945 -0.00113384 -0.00869274
-0.00340151 -0.0376055 -0.0192752
-0.00340151 -0.0385504 -0.0156847
0 0 -0.0134171
0.0247554 -0.00982658 0.0391173
0.00321253 -0.00188973 0.00188973
-0.0120942 -0.000566918 0.00869274
-0.00585815 0.00132281 0.00888171
-0.00888171 0.0270231 0.0294797
0.0100155 -0.0041574 0.0211649
0.00585815 -0.0200311 -0.00831479
0.0156847 -0.0156847 -0.00585815
0.0134171 0.0105825 0.0147399
0.000944863 0.0319364 0.0325033
0.0154958 -0.00869274 0.0408181
-0.0257003 0.00170075 0.013795
0.0134171 -0.00226767 -0.00170075
-0.00359048 -0.00548021 -0.0145509
-0.0185193 0.0438416 0.0434637
-0.0515895 0.0162516 -0.0474321
-0.0566918 0.0183303 -0.0366607
0.0359048 -0.00944863 0.0291018
0.0364717 -0.00907068 0.0147399
0.00453534 0.0625499 0.0213539
0.00529123 0.0650066 0.0145509
-0.00548021 -0.0651955 -0.0306136
-0.0062361 -0.0659514 -0.0238105
0.00075589 0.00321253 -0.0349599
-0.00245664 -0.0188973 -0.00718096
0.00188973 0.0164406 -0.00170075
0.0179524 -0.00869274 0.041574
0.0177634 -0.0145509 0.0763449
0.0631168 -0.0160627 0.0241885
0.00736993 -0.0396842 -0.0228657
0.0251334 -0.0323143 -0.0198421
0.0213539 0.0143619 0.0173855
-0.00113384 0.0525344 0.0491329
0.00604712 -0.00151178 0.00264562
Vibration 8
0.00132281 0.00680301 0.0124722
0.00132281 0.0075589 0.00680301
0.000944863 0.0075589 0.00434637
0.00113384 0.00736993 -0.000944863
0.00113384 0.00736993 -0.000188973
0.00113384 0.00680301 0.0158737
0.00226767 0.00812582 -0.0130391
0.00113384 0.00831479 0.0436527
0.00113384 0.0109604 0.0731324
0.00396842 0.00548021 0.0119053
0.0143619 0.00585815 0.0143619
0.0173855 0.00434637 0.00850377
0.00888171 0.00264562 0
-0.000377945 0.00151178 -0.00151178
-0.00245664 0.00264562 0.00491329
0.0115273 0.00226767 -0.0062361
0.000944863 0.00642507 0.00680301
-0.00188973 0.0468652 0.0221098
-0.0020787 0.0376055 0.0213539
0.000377945 -0.0128501 0.00548021
0.00283459 -0.0491329 -0.00793685
0.00302356 -0.0381725 -0.00718096
0.00075589 -0.0289128 0.00151178
-0.00453534 0.00491329 -0.0232436
0.000944863 0.00793685 -0.0096376
-0.0226767 0.00699199 0.00226767
-0.0130391 -0.00188973 -0.0109604
-0.00944863 -0.00396842 -0.0228657
0.00434637 0.00604712 0.00491329
-0.00680301 -0.0128501 -0.0194642
0.00396842 -0.0289128 -0.0451645
0.00831479 -0.0328812 -0.0610381
0.00113384 -0.0194642 -0.047999
0.00793685 0.0020787 0.0171965
-0.0487549 0.0096376 0.0192752
0.0128501 0.00718096 -0.0141729
0.00188973 0.00774788 0.00680301
-0.0143619 0.00548021 -0.013795
0.0202201 0.00736993 0.0202201
0.0257003 0.00472431 0.0103935
-0.00604712 -0.000566918 -0.00736993
-0.00944863 0.00113384 0.00434637
-0.00434637 0.0850377 0.0336371
-0.00396842 0.068786 0.0328812
0.00529123 -0.0865495 -0.0198421
0.00472431 -0.0653845 -0.0179524
0.0158737 -0.0253223 -0.0542351
-0.00699199 -0.0850377 0.0198421
-0.00566918 0.0096376 0.0336371
-0.00226767 0.00604712 -0.0287238
-0.00132281 0.0075589 -0.0360938
-0.0211649 0.00283459 -0.0170075
-0.0102045 -0.0096376 -0.00736993
0.00907068 -0.0385504 -0.0538572
0.0170075 -0.0462983 -0.0833369
0.00434637 -0.020976 -0.0578256
0.00188973 0.00793685 -0.00793685
Vibration 9
0.00170075 0.000377945 -0.00188973
0.00188973 0.00151178 -0.00566918
0.000944863 0.0020787 -0.00548021
0.000188973 0.00132281 -0.00434637
0.000188973 0.000377945 -0.00245664
0.000944863 -0.000188973 0.00075589
-0.000188973 0.000188973 -0.00188973
0.000944863 -0.000566918 0.00850377
0.000944863 -0.000566918 0.0164406
0.00264562 -0.000188973 0.000377945
0.00472431 -0.00264562 0.00321253
0.0041574 -0.00226767 0.00434637
0.00113384 0.000566918 0.0020787
-0.000188973 0.00245664 0
0.00075589 0.00188973 -0.00075589
0 0.00113384 0.00283459
0.000944863 0.00264562 -0.00510226
-0.000566918 0.0162516 0.00113384
-0.00151178 0.0126612 0.000944863
0.00075589 -0.00491329 -0.00491329
0.00283459 -0.0160627 -0.00850377
0.0020787 -0.0122832 -0.00869274
-0.000188973 -0.00604712 0.0124722
-0.00718096 0.00661404 -0.00283459
0 -0.000188973 -0.000944863
-0.00245664 -0.00170075 0.000566918
-0.00264562 -0.00188973 0.000377945
-0.00491329 0.00718096 0.0113384
-0.00075589 0.00226767 -0.00434637
0.00075589 -0.0102045 -0.00944863
0.00245664 -0.0102045 -0.00982658
0.00075589 -0.00113384 0.000566918
-0.00321253 0.00774788 0.0113384
-0.00188973 0.00188973 -0.00850377
-0.00377945 -0.00151178 0.00245664
0.000377945 0.00075589 0.000188973
0.00264562 0.00188973 -0.00736993
-0.00793685 0.0141729 0.0198421
0.00661404 -0.00472431 0.00434637
0.00585815 -0.0041574 0.00642507
-0.00188973 0.00453534 -0.00113384
-0.000188973 0.00321253 -0.00226767
-0.00226767 0.0296687 0.00453534
-0.000944863 0.0241885 0.00453534
0.00226767 -0.0272121 -0.0130391
0.00377945 -0.020787 -0.0126612
-0.0334482 -0.0674632 0.466006
0.0323143 0.410637 -0.134548
-0.00151178 -0.354324 -0.248688
-0.00812582 0.00661404 -0.00245664
-0.00434637 0.00907068 -0.00982658
-0.013795 0.0075589 -0.000188973
0.00188973 -0.0168186 -0.0166296
0.00529123 -0.0170075 -0.0183303
0.00226767 -0.00075589 0.000377945
-0.00491329 0.0153068 0.0202201
-0.000188973 0.000377945 0.00170075
Vibration 10
-0.0164406 -0.00283459 -0.00585815
-0.0156847 -0.013795 -0.00982658
-0.00585815 -0.0202201 -0.00264562
0.00396842 -0.0143619 0.00566918
0.00491329 -0.00302356 0.00170075
-0.00566918 0.00302356 0.00264562
0.013606 0.00151178 -0.00736993
-0.00510226 0.0187083 0.013606
-0.00453534 0.034204 0.0257003
-0.0224877 0.000377945 -0.0105825
-0.00793685 -0.0062361 -0.00075589
0.000377945 -0.0105825 0.00245664
-0.00736993 -0.00907068 -0.00434637
-0.0291018 0.00075589 -0.0196532
-0.0362827 0.00491329 -0.0224877
0.00907068 -0.0175745 0.00472431
-0.00566918 -0.0239995 -0.00718096
-0.000377945 -0.02759 -0.0115273
0 -0.000944863 -0.00925966
-0.00566918 0.0292908 -0.00245664
-0.0109604 0.020409 -0.00264562
-0.0109604 -0.00680301 -0.00510226
-0.00661404 0.0752111 0.00680301
0.0215429 -0.0296687 0.013984
0.0132281 0.000188973 -0.0075589
0.00245664 0.00793685 -0.00434637
0.0041574 0.00812582 -0.00453534
0.00888171 -0.0075589 -0.0253223
0.0239995 -0.0190862 0.0326923
-0.00075589 0.020976 0.0111494
-0.00188973 0.0183303 0.00793685
0.0020787 0.00226767 -0.0126612
0.0075589 -0.0109604 -0.0294797
0.0385504 -0.02759 0.0831479
-0.0075589 0.00982658 -0.00377945
0.0296687 -0.00548021 -0.020409
-0.0230547 -0.0183303 -0.0175745
0.0134171 -0.0185193 -0.0394953
-0.000944863 -0.00850377 0.00510226
0.013984 -0.0160627 0.0113384
-0.0394953 0.00472431 -0.0283459
-0.0515895 0.0105825 -0.0321253
0.0041574 -0.0476211 -0.0154958
0.00434637 -0.00075589 -0.0115273
-0.0153068 0.0379835 0.000566918
-0.0156847 -0.0111494 -0.00396842
-0.0430858 0.0816362 0.0495108
0.0128501 0.127557 -0.00377945
0.00850377 0.0563138 -0.0143619
0.0455424 -0.0425188 0.0300466
0.00396842 -0.0517785 0.0062361
0.0260782 -0.00434637 0.013606
-0.00302356 0.0328812 0.0251334
-0.00585815 0.0285349 0.020976
0.000944863 -0.000188973 -0.0156847
0.0111494 -0.0239995 -0.0464873
0.0249444 -0.00283459 -0.0222988
Vibration 11
-0.00245664 -0.00132281 -0.0198421
-0.00226767 -0.00283459 -0.0362827
0.000188973 -0.0041574 -0.0285349
0.00302356 -0.00302356 -0.0194642
0.00359048 -0.00113384 -0.0119053
0.000377945 0.000566918 -0.00245664
0.00604712 0 -0.00850377
0.000566918 0.0075589 0.0349599
0.000944863 0.0158737 0.0729434
-0.00283459 -0.000944863 -0.013795
0.00982658 -0.0143619 0.0020787
0.0128501 -0.0160627 0.0111494
0.00132281 -0.00453534 0.00321253
-0.0128501 0.00907068 -0.0134171
-0.013984 0.00944863 -0.0211649
0.0062361 -0.00793685 0.0145509
0 -0.00585815 -0.0221098
-0.00925966 -0.0200311 -0.0219208
-0.0100155 -0.0168186 -0.00925966
-0.00151178 0.00151178 0.00321253
0.00793685 0.013795 0.0020787
0.00869274 0.00982658 -0.0105825
-0.00226767 0.0075589 0.0156847
-0.0102045 0.00661404 0.00188973
0.00774788 -0.00226767 -0.00396842
-0.00170075 -0.00566918 0.00132281
-0.00604712 -0.00283459 0.00548021
-0.0170075 0.034393 0.0542351
0.00548021 0.00170075 -0.0062361
0.00529123 -0.0334482 -0.0326923
0.00793685 -0.0270231 -0.0253223
-0.00132281 0.0109604 0.0236216
-0.0143619 0.0421409 0.0636838
0.00321253 0.00170075 -0.0132281
-0.00170075 -0.00548021 0.00283459
0.0145509 -0.000188973 -0.00321253
-0.00321253 -0.00340151 -0.0495108
-0.0272121 0.0589595 0.0857936
0.0177634 -0.0232436 0.00680301
0.0241885 -0.0262672 0.0238105
-0.0222988 0.0187083 -0.0196532
-0.0236216 0.0179524 -0.0315584
-0.0158737 -0.0330702 -0.0309915
-0.0177634 -0.02759 -0.00888171
0.0149288 0.0268341 0.0117163
0.0158737 0.0196532 -0.0107714
-0.00359048 0.0170075 -0.0400622
0.00377945 -0.0451645 0.0394953
-0.0075589 0.0548021 0.0536682
-0.00264562 0.000377945 0.013606
-0.0096376 0.00453534 -0.0255113
-0.0287238 0.0245664 0.0100155
0.0113384 -0.0612271 -0.0667073
0.0173855 -0.0514005 -0.0566918
0.00132281 0.0168186 0.0308025
-0.0222988 0.0719986 0.102423
0.0130391 -0.00151178 0.00075589
Vibration 12
-0.00888171 0.00321253 0.0391173
-0.00888171 -0.00340151 0.0574477
-0.00340151 -0.0062361 0.0355268
0.000944863 -0.00377945 0.0109604
0.000944863 0.00283459 0.0062361
-0.00453534 0.00585815 0.0158737
0.00850377 0.00699199 -0.00831479
-0.00396842 0.0103935 -0.00226767
-0.00396842 0.013795 -0.0183303
-0.0120942 0.00472431 0.0285349
-0.0107714 0.0202201 0.013795
-0.00793685 0.0192752 -0.0041574
-0.00529123 0.00170075 -0.00604712
-0.00869274 -0.0126612 0.00604712
-0.0128501 -0.0096376 0.0228657
0.000944863 0.00075589 -0.0243775
-0.00321253 -0.00831479 0.0238105
0.0128501 -0.0230547 0.0100155
0.0141729 -0.0147399 -0.0062361
-0.000944863 0.00850377 -0.00850377
-0.0168186 0.0192752 0.00359048
-0.0175745 0.0096376 0.0196532
-0.000188973 0.0232436 -0.0247554
0.0238105 -0.0313695 -0.0115273
0.0175745 0.00283459 -0.0102045
0.00453534 0.0020787 -0.00302356
-0.00151178 0.000566918 -0.00302356
-0.00812582 0.0154958 0.0232436
0.00510226 -0.000188973 -0.0119053
0.00359048 -0.0190862 -0.0328812
0.00434637 -0.0272121 -0.0445975
-0.000377945 -0.0141729 -0.0226767
-0.0075589 0.00869274 0.0134171
-0.00245664 -0.00604712 -0.0368497
0.00377945 0.00170075 -0.000566918
0.0326923 0.0020787 -0.0160627
-0.013606 -0.00566918 0.0803134
-0.0134171 0.0328812 0.0510226
-0.0113384 0.0332592 0.0173855
-0.00718096 0.0311805 -0.0154958
-0.00869274 -0.0255113 0.00245664
-0.0168186 -0.0196532 0.0308025
0.0247554 -0.0400622 0.0122832
0.0266451 -0.0258892 -0.0164406
-0.0289128 0.0353379 0.00113384
-0.0300466 0.0168186 0.0285349
-0.00944863 0.0249444 -0.0147399
-0.00642507 0.041385 -0.0353379
0.0158737 0.0158737 -0.0377945
0.0332592 -0.0300466 -0.0234326
0.0115273 -0.0434637 0.0160627
0.0432747 -0.0428968 -0.0196532
0.00661404 -0.0279679 -0.0478101
0.00907068 -0.0442196 -0.0712427
0.00113384 -0.0211649 -0.0332592
-0.0120942 0.0202201 0.0330702
0.0328812 0.00132281 -0.0145509
Vibration 13
-0.00396842 0.00604712 0.00718096
-0.0041574 0.0115273 0.00661404
-0.00888171 0.0134171 0.00359048
-0.0143619 0.0120942 0.00151178
-0.0154958 0.00718096 -0.00132281
-0.00907068 0.00302356 0.00151178
-0.0243775 0.0041574 -0.00585815
-0.00982658 -0.00907068 0.00075589
-0.0103935 -0.0234326 -0.000377945
0.00453534 0.00151178 0.0120942
0.000566918 0.00831479 0.00434637
0.0062361 0.00548021 0.00377945
0.0154958 -0.00359048 0.0100155
0.0249444 -0.0132281 0.0217318
0.0190862 -0.00982658 0.0224877
0.0160627 -0.00321253 0.00529123
-0.00925966 0.0141729 0.00359048
-0.0100155 0.00944863 0.00245664
-0.0100155 0.0020787 0.000188973
-0.00982658 -0.000188973 -0.000377945
-0.00944863 0.00850377 0.0020787
-0.00925966 0.0158737 0.0041574
-0.0096376 -0.0124722 -0.00434637
-0.020976 0.013984 -0.0292908
-0.0340151 0.00793685 -0.00170075
0.0360938 -0.00359048 -0.0328812
0.013606 0.00075589 -0.0217318
0.00321253 0.0130391 0.0156847
-0.0107714 -0.0194642 0.0308025
0.0132281 -0.013984 -0.0544241
0.00548021 -0.0224877 -0.0636838
-0.00264562 -0.0130391 -0.0328812
-0.00491329 0.00699199 0.0107714
0.0170075 -0.0124722 0.122076
0.118108 -0.0149288 -0.0699199
-0.0634948 0.013984 0.0170075
-0.000566918 0.0132281 0.00944863
0.0020787 0.027401 0.0451645
-0.00812582 0.0164406 -0.00151178
0.00188973 0.0107714 -0.00264562
0.0366607 -0.0234326 0.0300466
0.0253223 -0.0162516 0.0300466
-0.0102045 0.0115273 0.00283459
-0.0102045 -0.00188973 -0.00113384
-0.00888171 0.00944863 0.00283459
-0.00907068 0.0222988 0.00661404
-0.00075589 -0.0153068 -0.00566918
-0.0151178 -0.0166296 -0.00548021
-0.0126612 -0.0151178 -0.00491329
-0.0351489 0.0243775 -0.0472432
-0.00188973 0.0351489 -0.047999
-0.0523454 -0.00491329 -0.0183303
0.0181414 -0.0188973 -0.0725655
0.0062361 -0.0364717 -0.0942973
-0.00793685 -0.020598 -0.041385
-0.0124722 0.0175745 0.0391173
-0.0264562 0.00718096 0.00434637
Vibration 14
-0.0168186 0.00736993 -0.00340151
-0.0170075 -0.00132281 -0.00566918
-0.0109604 -0.00510226 -0.00774788
-0.00396842 -0.00245664 -0.0062361
-0.00340151 0.0062361 -0.00604712
-0.0111494 0.0103935 -0.0062361
0.00869274 0.0120942 -0.00434637
-0.0107714 0.0149288 -0.0122832
-0.0105825 0.0179524 -0.020409
-0.0109604 0.00377945 0.00245664
-0.0258892 0.0177634 -0.0151178
-0.00132281 0.00453534 -0.00245664
0.0357158 -0.020409 0.0257003
0.0519675 -0.034771 0.0434637
0.027779 -0.0211649 0.0315584
0.0631168 -0.0353379 0.0410071
-0.0113384 -0.0120942 -0.00925966
-0.013795 -0.0149288 -0.00888171
-0.0141729 -0.00850377 -0.00472431
-0.0128501 0.00075589 -0.000566918
-0.0105825 -0.00510226 -0.00377945
-0.0103935 -0.0117163 -0.00831479
-0.013606 0.0194642 0.00831479
-0.0544241 0.0253223 -0.0667073
0.0179524 0.00548021 -0.00151178
-0.000944863 0.00321253 0.00850377
0.00188973 0.000566918 0.00453534
0.00302356 -0.00226767 0
0.0120942 0.00472431 -0.00170075
0.000944863 0.00377945 0.00869274
0.000188973 0.00604712 0.0122832
0.00075589 0.00434637 0.00982658
0.00245664 -0.000566918 0.00245664
0.00907068 -0.00812582 -0.0103935
-0.0183303 0.00491329 0.0202201
0.0396842 0.0062361 -0.00736993
-0.0222988 -0.00434637 -0.0062361
0.0041574 -0.00566918 -0.00453534
-0.0566918 0.0393063 -0.0383614
-0.0122832 0.0143619 -0.0147399
0.0856046 -0.0587705 0.068786
0.0402512 -0.0309915 0.0442196
-0.0153068 -0.0202201 -0.0119053
-0.0153068 -0.00888171 -0.0041574
-0.00925966 -0.00283459 -0.00188973
-0.00925966 -0.0149288 -0.0100155
-0.0279679 0.0245664 0.00812582
-0.00321253 0.0234326 0.0119053
-0.0105825 0.0262672 0.0119053
-0.0708647 0.0391173 -0.0920297
-0.0102045 0.0697309 -0.157981
-0.163272 0.0102045 -0.0257003
0.000944863 0.00472431 0.0096376
-0.00075589 0.00925966 0.0170075
0 0.00661404 0.0134171
0.00321253 -0.00283459 -0.00075589
0.0334482 0.00529123 -0.00113384
Vibration 15
-0.00377945 0.0102045 0.0198421
-0.00377945 0.0111494 0.027401
-0.00396842 0.0109604 -0.00396842
-0.00604712 0.0105825 -0.0377945
-0.00661404 0.00944863 -0.041196
-0.00585815 0.00907068 -0.0113384
-0.0062361 0.0111494 -0.0629279
-0.0062361 0.00869274 0.000566918
-0.00604712 0.00982658 0.0170075
0.000377945 0.00850377 0.0281569
0.00925966 0.0151178 0.0239995
0.00907068 0.0162516 0.0096376
0.00113384 0.0102045 0.00075589
-0.00151178 -0.000188973 0.00944863
-0.00226767 0.000944863 0.0226767
-0.00548021 0.0160627 -0.0234326
-0.00453534 0.0128501 -0.00188973
-0.00680301 0.0120942 -0.000944863
-0.00699199 0.00718096 0
-0.00510226 0.00264562 -0.000377945
-0.00283459 0.00925966 0.000566918
-0.00264562 0.0141729 -0.000188973
-0.00491329 -0.0115273 -0.0020787
0.0153068 -0.0111494 -0.0111494
-0.00340151 0.000377945 -0.0332592
-0.00699199 -0.0442196 -0.0226767
0.00396842 -0.0542351 -0.0355268
0.00736993 -0.0404401 -0.0381725
0.000377945 -0.00302356 -0.0166296