[Molden Format]
[FREQ]
-347.3
9.5
17.6
26.5
27.9
30.3
35.0
41.1
44.1
53.7
70.0
74.9
89.2
96.0
109.4
115.6
132.4
134.2
145.0
153.6
169.6
180.4
216.8
221.7
234.2
241.8
249.8
260.8
280.4
292.0
317.3
326.6
331.2
351.2
356.6
364.1
384.8
395.1
411.7
425.5
460.3
468.8
488.5
506.9
524.1
545.5
548.8
558.8
567.9
584.2
612.2
615.7
621.5
632.3
644.4
656.3
672.4
691.5
693.7
713.8
716.2
745.8
748.9
781.0
791.5
814.8
826.8
846.2
852.0
877.9
882.5
883.0
898.9
900.8
934.2
958.4
964.8
978.8
1007.5
1008.7
1009.3
1016.2
1018.0
1023.8
1033.2
1044.0
1052.7
1071.2
1075.1
1080.0
1100.9
1127.4
1151.8
1175.7
1179.0
1180.0
1182.5
1189.3
1208.2
1227.9
1231.4
1255.1
1264.2
1269.8
1272.0
1273.6
1284.1
1287.9
1295.4
1301.1
1317.8
1321.8
1326.3
1337.5
1348.8
1351.0
1355.3
1364.1
1379.2
1382.1
1393.6
1426.5
1430.1
1499.1
1517.7
1520.3
1527.6
1528.4
1547.8
1555.7
1571.4
1596.6
1604.1
1644.3
1653.3
1666.1
1691.3
1700.1
1701.2
1704.9
1708.5
1711.1
1823.0
1854.2
2450.6
2651.6
2655.4
2666.9
2675.5
2703.2
2706.9
2734.4
2738.7
2741.5
2744.2
2745.5
2747.3
2750.8
2758.5
2763.6
2767.1
2767.8
2769.3
2771.6
2780.3
       
[FR-COORD]
C -2.31718 -3.74279 -0.518541
C 0.323899 -3.74279 -0.518541
C 1.60079 -1.42561 -0.518541
N 0.387583 0.808236 -0.489061
C -2.19737 0.848865 -0.521942
C -3.62298 -1.44092 -0.535737
N -3.44365 3.11918 -0.465628
C -6.2926 -1.34341 -0.599799
N -8.48033 -1.28256 -0.651011
C -3.66493 -6.16429 -0.511927
C -3.16113 -7.94384 -2.40902
C -4.4127 -10.2427 -2.43038
C -6.18016 -10.7533 -0.514761
C -6.69757 -9.01059 1.39405
C -5.42805 -6.70569 1.37326
O -7.25523 -13.0724 -0.750788
C 4.38454 -1.30826 -0.561249
C 5.79031 -2.55812 1.28728
C 8.41514 -2.39787 1.26498
C 9.64459 -1.00137 -0.609059
C 8.22938 0.233381 -2.46666
C 5.60568 0.0852266 -2.44323
C 12.4575 -0.852266 -0.6512
C -9.19201 -13.7122 0.996075
C -2.3255 5.32789 -0.773654
C -0.243586 10.56 0.800677
C 1.78182 9.05292 1.73704
C 2.12141 6.61121 0.738505
C 0.51873 5.67239 -1.40596
C 3.39225 9.89442 3.68799
C 5.2523 8.32103 4.63436
C 5.54899 5.87686 3.64868
C 3.99677 5.03669 1.70661
O 1.3812 5.38799 -3.4788
O -0.563516 12.9104 1.30391
O -3.49032 7.37957 -0.584114
H 1.36948 -5.50628 -0.522509
H 0.708458 13.7716 2.43264
H -1.78919 -7.50278 -3.8849
H -4.06423 -11.6418 -3.89189
H -8.06648 -9.40573 2.86596
H -5.82432 -5.31089 2.84234
H 4.83127 -3.64793 2.74861
H 9.51005 -3.37052 2.70552
H 9.17821 1.31223 -3.93668
H 4.4881 1.06694 -3.87923
H 13.3008 -1.14064 1.22227
H 13.14 0.979823 -1.34945
H 13.2509 -2.3134 -1.90447
H -9.76799 -15.5959 0.341285
H -10.7752 -12.3862 0.864361
H -8.4433 -13.8135 2.92057
H 3.15735 11.7785 4.48545
H 6.48781 8.96051 6.15314
H 7.01164 4.63247 4.41194
H 4.2224 3.12107 0.925966
H -2.00878 9.6616 -0.438416

[FR-NORM-COORD]
Vibration 1
0.00396842 -0.00604712 0.00075589
0.00604712 -0.00585815 -0.00113384
-0.00113384 -0.00302356 0
0.0107714 -0.00170075 0.00812582
-0.00264562 -0.00302356 0.00680301
0.00075589 -0.0179524 0.00340151
-0.0096376 -0.0529123 -0.00453534
0.00283459 -0.00699199 0.00075589
0.0020787 0 0.000188973
0.00245664 -0.00585815 0.00075589
0.000566918 -0.00321253 -0.000566918
-0.00132281 -0.00283459 -0.00075589
-0.000188973 -0.000566918 -0.000188973
-0.000566918 -0.00170075 -0.000188973
0.00113384 -0.00226767 0
-0.00075589 -0.00226767 0
0.00132281 -0.00132281 0.000377945
0.00151178 0 0.000377945
0.00170075 0.000944863 0.00075589
0.000566918 0.00113384 0.00075589
0.000566918 0.000566918 0.000566918
0.00075589 -0.00132281 0.000377945
0.00113384 0.000188973 -0.000188973
-0.000566918 -0.000188973 -0.000188973
-0.0769118 0.00850377 0.0062361
0.0650066 0.0474321 -0.0474321
-0.034393 0.00434637 -0.0141729
-0.0177634 -0.00831479 -0.0122832
-0.0272121 -0.0224877 -0.0160627
-0.00982658 0.0020787 0.00434637
-0.0177634 0.0145509 -0.00699199
-0.0141729 -0.00359048 -0.00982658
-0.0134171 -0.00377945 0.00377945
0.00113384 0.00566918 -0.0041574
0.0304246 0.0576366 0.0565028
0.0381725 -0.0366607 0.00491329
0.00566918 -0.00226767 -0.00453534
-0.0546131 -0.0546131 0.24472
0.000566918 -0.00188973 0
-0.00302356 -0.00226767 -0.000566918
-0.00188973 -0.000377945 -0.00170075
0.000944863 0.000188973 -0.00264562
0.000188973 -0.0041574 -0.00321253
0.0020787 -0.00151178 -0.00170075
0.000566918 -0.00377945 -0.00188973
-0.00245664 -0.00736993 -0.00188973
0.00132281 -0.000944863 -0.000944863
0.00188973 -0.00170075 -0.0020787
-0.00151178 -0.00170075 -0.000188973
-0.00245664 0.000188973 0.00170075
0.000566918 0.00132281 -0.000566918
-0.000566918 0.000944863 -0.000188973
-0.0115273 0.00396842 0.00188973
-0.0075589 0.00585815 -0.0096376
-0.0041574 0.00642507 -0.00491329
-0.0268341 -0.0124722 0
0.485282 0.695608 -0.225066
Vibration 2
0.0020787 0.00283459 -0.00680301
0.0020787 0.00188973 -0.00982658
0.00321253 0.00132281 -0.0147399
0.00302356 0.00151178 -0.0177634
0.00321253 0.00245664 -0.0190862
0.00245664 0.00302356 -0.0119053
0.00472431 0.00377945 -0.0302356
0.00245664 0.00359048 -0.0100155
0.00245664 0.00396842 -0.00812582
0.00132281 0.00321253 0.00226767
-0.00245664 -0.00264562 0.00680301
-0.00302356 -0.00245664 0.0158737
-0.000188973 0.00396842 0.020409
0.00340151 0.0100155 0.0158737
0.0041574 0.00944863 0.00661404
-0.00113384 0.00359048 0.0292908
0.00283459 0.0020787 -0.0173855
0.00718096 -0.0315584 -0.0432747
0.00718096 -0.0319364 -0.0464873
0.00321253 0.00151178 -0.0241885
-0.00075589 0.0360938 0.00188973
-0.000566918 0.0362827 0.00529123
0.00321253 -0.000188973 -0.02759
0.0020787 0.00925966 0.0349599
0.0105825 0.00151178 -0.0270231
0.0041574 -0.00302356 -0.00793685
-0.0100155 -0.00736993 0.0156847
-0.00396842 -0.00831479 0.0200311
0.0175745 -0.00359048 0.00170075
-0.0308025 -0.0105825 0.034204
-0.0455424 -0.0147399 0.0563138
-0.0396842 -0.0156847 0.0600933
-0.0188973 -0.0124722 0.0421409
0.0387394 -0.000944863 0.0102045
0.00453534 -0.00188973 -0.0132281
0.0119053 0.00377945 -0.0434637
0.00113384 0.00132281 -0.00831479
-0.00585815 -0.0041574 0.000188973
-0.00472431 -0.0075589 0.00321253
-0.00604712 -0.00699199 0.0196532
0.00566918 0.0149288 0.0192752
0.00680301 0.0141729 0.00302356
0.0105825 -0.0576366 -0.0604712
0.0103935 -0.0583925 -0.0667073
-0.00396842 0.0629279 0.0194642
-0.00377945 0.0631168 0.0257003
0.00491329 -0.00510226 -0.0291018
0.00434637 0.00075589 -0.0241885
0.000566918 0.00188973 -0.0317474
0.00075589 0.00718096 0.0419519
0.00188973 0.00888171 0.0336371
0.00566918 0.0153068 0.0338261
-0.0357158 -0.00982658 0.0311805
-0.061794 -0.0171965 0.0704868
-0.0512116 -0.0187083 0.0772898
-0.013606 -0.0130391 0.0449755
0.0156847 0.00075589 -0.0270231
Vibration 3
0.00226767 0.00396842 -0.0132281
0.00226767 0.00340151 -0.00793685
0.00245664 0.00321253 -0.0147399
0.00359048 0.00377945 -0.0239995
0.00359048 0.0041574 -0.0266451
0.00321253 0.00434637 -0.0253223
0.00264562 0.00340151 -0.0270231
0.00340151 0.00510226 -0.0351489
0.00359048 0.00566918 -0.0442196
0.00170075 0.00453534 -0.00226767
0.00718096 -0.00888171 0.0117163
0.00736993 -0.00907068 0.0245664
0.00170075 0.00434637 0.0228657
-0.0041574 0.0179524 0.00888171
-0.0041574 0.0177634 -0.00377945
0.00283459 0.00245664 0.0366607
0.00283459 0.00132281 -0.00944863
-0.00340151 0.0308025 0.0151178
-0.00340151 0.0302356 0.020976
0.00283459 -0.000188973 0.00245664
0.00888171 -0.0302356 -0.0221098
0.00869274 -0.0292908 -0.0279679
0.00283459 -0.000377945 0.00869274
-0.000944863 0.013984 0.0366607
0.000188973 0.00585815 -0.0181414
-0.0145509 -0.0096376 0.0406291
-0.00925966 -0.0141729 0.0219208
-0.000566918 -0.000944863 -0.00718096
-0.000188973 0.0132281 -0.013795
-0.0103935 -0.0308025 0.0300466
-0.00226767 -0.0340151 0.00888171
0.00774788 -0.020409 -0.0215429
0.00888171 -0.00359048 -0.0296687
0.000566918 0.0266451 -0.0153068
-0.0266451 -0.0188973 0.076156
-0.00396842 0.00302356 -0.0115273
0.00226767 0.00340151 0.00226767
-0.0336371 -0.0302356 0.0927855
0.0115273 -0.0194642 0.0126612
0.0117163 -0.0196532 0.0355268
-0.00888171 0.0285349 0.00736993
-0.00850377 0.0281569 -0.0149288
-0.00850377 0.0544241 0.0294797
-0.00812582 0.0531013 0.0402512
0.013984 -0.0542351 -0.0364717
0.013606 -0.0521564 -0.0470542
-0.00113384 0.00869274 0.0119053
0.00377945 -0.00321253 0.00170075
0.0062361 -0.00585815 0.0173855
0.00226767 0.00869274 0.0496998
-0.00170075 0.0117163 0.0226767
-0.00566918 0.0292908 0.0393063
-0.0170075 -0.041196 0.0527234
-0.00321253 -0.0468652 0.0151178
0.0145509 -0.0230547 -0.0389284
0.0171965 0.00736993 -0.0540462
-0.00793685 0.0020787 0.0222988
Vibration 4
-0.0128501 0.00982658 -0.0198421
-0.0130391 0.0062361 -0.0238105
-0.0100155 0.00453534 -0.0147399
-0.00718096 0.00604712 -0.0102045
-0.00718096 0.00925966 -0.00944863
-0.0102045 0.0109604 -0.0103935
-0.0041574 0.0109604 -0.00566918
-0.0103935 0.0122832 0.00113384
-0.0107714 0.0122832 0.0117163
-0.0124722 0.00944863 -0.0198421
-0.0379835 0.0241885 -0.0402512
-0.0268341 0.0181414 -0.0315584
0.0113384 -0.00283459 -0.00188973
0.0325033 -0.0145509 0.0145509
0.0194642 -0.00736993 0.00491329
0.0241885 -0.0096376 0.00718096
-0.0096376 -0.00188973 -0.0041574
-0.0224877 -0.0102045 0
-0.0217318 -0.0188973 0.0130391
-0.00850377 -0.0192752 0.0217318
0.0041574 -0.0105825 0.0175745
0.00359048 -0.0020787 0.00453534
-0.00793685 -0.0270231 0.0340151
0.076156 -0.0410071 0.0531013
-0.00113384 0.0100155 -0.00226767
0.0075589 0.00604712 0.00151178
0.00566918 0.00245664 -0.000188973
0.000944863 0.00226767 -0.00170075
-0.00075589 0.00718096 -0.00245664
0.00793685 -0.00151178 -0.000377945
0.00529123 -0.00529123 -0.00188973
0.000188973 -0.00548021 -0.00302356
-0.00188973 -0.00170075 -0.00283459
-0.00188973 0.00944863 -0.00321253
0.0122832 0.00680301 0.00188973
0.00188973 0.0113384 0.00132281
-0.0154958 0.00472431 -0.0319364
0.0151178 0.00434637 0.000566918
-0.0655735 0.0398732 -0.0612271
-0.0459203 0.0285349 -0.0461093
0.0587705 -0.0292908 0.0351489
0.0359048 -0.0160627 0.0173855
-0.0330702 -0.0100155 -0.00661404
-0.0321253 -0.0257003 0.0162516
0.0151178 -0.0107714 0.0243775
0.013606 0.0041574 0.00113384
-0.0117163 -0.0992106 0.0245664
-0.0020787 -0.00283459 0.103368
-0.0096376 0.0171965 -0.0187083
0.082581 -0.0451645 0.0589595
0.0568808 -0.0597153 0.0988327
0.125667 -0.0408181 0.0340151
0.0115273 -0.00151178 0.000566918
0.00718096 -0.00831479 -0.0020787
-0.00188973 -0.00869274 -0.00396842
-0.00604712 -0.00188973 -0.00359048
0.00491329 0.00907068 0.00283459
Vibration 5
0.00869274 -0.00774788 0.00113384
0.00850377 -0.0075589 -0.00888171
0.00699199 -0.00680301 -0.0107714
0.00585815 -0.00736993 -0.0109604
0.00566918 -0.00793685 -0.00396842
0.00699199 -0.00850377 0.00774788
0.00566918 -0.00793685 -0.00944863
0.00642507 -0.0115273 0.0281569
0.00585815 -0.0145509 0.0470542
0.00472431 -0.00566918 0.00283459
-0.034771 0.0122832 -0.0239995
-0.0487549 0.0196532 -0.0289128
-0.0211649 0.00925966 -0.00642507
0.0221098 -0.0100155 0.0230547
0.034393 -0.0168186 0.027401
-0.0421409 0.0200311 -0.0168186
0.00680301 0.000377945 -0.00831479
0.0075589 0.0230547 0.00642507
0.00642507 0.0423299 0.0173855
0.00472431 0.0383614 0.0132281
0.00434637 0.0117163 -0.0041574
0.00529123 -0.00699199 -0.0147399
0.00377945 0.0627389 0.0287238
-0.0215429 0.0151178 0.0041574
0.0062361 -0.00888171 -0.0147399
0.00188973 -0.0122832 -0.00566918
-0.000944863 -0.013606 -0.00151178
0.00321253 -0.0117163 -0.00472431
0.00774788 -0.0100155 -0.00907068
-0.00718096 -0.0162516 0.00472431
-0.00869274 -0.0166296 0.00699199
-0.00359048 -0.0143619 0.00264562
0.00245664 -0.0115273 -0.00321253
0.0119053 -0.00888171 -0.00736993
-0.000188973 -0.0134171 -0.00245664
0.00548021 -0.00831479 -0.0232436
0.00869274 -0.00736993 -0.0141729
-0.00434637 -0.0153068 0.00377945
-0.0559359 0.020598 -0.0410071
-0.0810692 0.0338261 -0.0502667
0.0453534 -0.0192752 0.0421409
0.0667073 -0.0306136 0.0487549
0.00869274 0.0268341 0.0100155
0.00718096 0.0612271 0.0294797
0.00302356 0.00699199 -0.00850377
0.00472431 -0.0257003 -0.0270231
-0.00736993 0.118864 0.0423299
-0.00718096 0.0504557 -0.013984
0.0255113 0.0372276 0.0723765
-0.0495108 0.0292908 -0.0120942
-0.0111494 0.0317474 0.0464873
0.00736993 -0.0177634 -0.00869274
-0.0107714 -0.0179524 0.0075589
-0.013795 -0.0187083 0.0120942
-0.00453534 -0.0145509 0.00396842
0.00680301 -0.00944863 -0.00699199
0.00604712 -0.0102045 -0.013795
Vibration 6
-0.0141729 -0.000944863 -0.0128501
-0.013795 -0.00188973 -0.0107714
-0.013606 -0.00245664 -0.0075589
-0.013606 -0.00264562 -0.00151178
-0.0134171 -0.000944863 -0.00359048
-0.013984 -0.000566918 -0.0134171
-0.00850377 0.00170075 0.00434637
-0.013606 0.00075589 -0.0245664
-0.0132281 0.00245664 -0.0355268
-0.0124722 -0.00188973 -0.0103935
0.00396842 -0.0132281 0.00434637
0.0126612 -0.0179524 0.0130391
0.00377945 -0.0115273 0.00680301
-0.0154958 0.00113384 -0.0100155
-0.0234326 0.00548021 -0.0185193
0.0166296 -0.0185193 0.0188973
-0.013795 0.00377945 -0.00831479
-0.00925966 0.0179524 -0.00245664
-0.0103935 0.0381725 0.00377945
-0.0162516 0.0434637 0.00359048
-0.020598 0.0249444 -0.00529123
-0.0196532 0.00529123 -0.0111494
-0.0175745 0.068975 0.0145509
0.0143619 -0.0170075 0.0168186
0.00170075 -0.00132281 0.0147399
0.0328812 -0.00321253 -0.00377945
0.0253223 -0.0103935 0.00113384
0.00907068 -0.0170075 0.0119053
0.00321253 -0.0124722 0.013984
0.0323143 -0.0109604 -0.00453534
0.0234326 -0.0181414 0.00132281
0.00680301 -0.0247554 0.0130391
-0.000377945 -0.0241885 0.0183303
0.000566918 -0.013606 0.0128501
0.0536682 0.00377945 -0.0241885
0.0117163 0.00340151 0.0239995
-0.0141729 -0.00188973 -0.0109604
0.0657625 0.00434637 -0.0381725
0.0109604 -0.0185193 0.00907068
0.0264562 -0.0270231 0.0251334
-0.0238105 0.00718096 -0.0160627
-0.0377945 0.0143619 -0.0306136
-0.00472431 0.0149288 -0.00188973
-0.00642507 0.0506447 0.00907068
-0.0253223 0.0272121 -0.00661404
-0.0234326 -0.00680301 -0.0164406
-0.0258892 0.127745 0.027401
-0.0300466 0.0559359 -0.0313695
0.00302356 0.0421409 0.0587705
0.0300466 -0.0268341 0.0308025
0.00566918 -0.0292908 -0.00113384
0.00699199 0.00491329 0.020787
0.0444086 -0.00585815 -0.0130391
0.0289128 -0.0185193 -0.00302356
-0.000566918 -0.0304246 0.0175745
-0.0120942 -0.0287238 0.0268341
0.0217318 -0.0020787 0.0109604
Vibration 7
-0.00907068 0.0115273 0.020787
-0.00888171 0.0103935 0.0215429
-0.00774788 0.00925966 0.013984
-0.00642507 0.00982658 0.00548021
-0.00642507 0.0113384 0.00736993
-0.00793685 0.0120942 0.020409
-0.00283459 0.013795 -0.00812582
-0.00812582 0.0141729 0.0328812
-0.00850377 0.0162516 0.0461093
-0.00529123 0.00944863 0.0122832
0.0119053 0.0151178 0.0109604
0.0228657 0.00944863 0.000188973
0.0156847 -0.00226767 -0.00944863
-0.00359048 -0.00718096 -0.0103935
-0.013795 -0.00113384 0.00075589
0.0302356 -0.00793685 -0.0185193
-0.0075589 0.00604712 0.00793685
-0.00529123 0.0368497 0.0266451
-0.00491329 0.0294797 0.0149288
-0.00736993 -0.0096376 -0.0158737
-0.0103935 -0.0381725 -0.0325033
-0.0107714 -0.0292908 -0.0200311
-0.00699199 -0.0221098 -0.0306136
0.0272121 -0.0234326 -0.027779
0.00453534 0.00888171 -0.0196532
0.0111494 -0.000566918 -0.0119053
-0.000566918 -0.00812582 0.00151178
0.00188973 -0.00642507 -0.00170075
0.00850377 -0.00226767 -0.00850377
-0.013606 -0.0158737 0.0154958
-0.0222988 -0.020787 0.0243775
-0.0160627 -0.0170075 0.0170075
-0.00321253 -0.00944863 0.00340151
0.0158737 -0.00661404 -0.00472431
0.0179524 0.000944863 -0.0154958
0.00869274 0.0132281 -0.0387394
-0.00944863 0.0100155 0.0262672
0.013984 -0.00377945 -0.0075589
0.0175745 0.0239995 0.0187083
0.0372276 0.013606 -0.000377945
-0.0102045 -0.0156847 -0.0188973
-0.0285349 -0.00548021 0.000944863
-0.00359048 0.0659514 0.0495108
-0.00264562 0.0532903 0.0292908
-0.0124722 -0.0670853 -0.055369
-0.0130391 -0.0502667 -0.0325033
-0.00170075 0.0298577 -0.0249444
-0.00151178 -0.0455424 -0.0871164
-0.0175745 -0.062361 0.0096376
0.0428968 -0.0264562 -0.0325033
0.0187083 -0.0340151 -0.0330702
0.0192752 -0.020598 -0.0245664
-0.0173855 -0.0179524 0.0196532
-0.0336371 -0.027401 0.0362827
-0.0215429 -0.0202201 0.0221098
0.00302356 -0.00566918 -0.00359048
0.0153068 0.00548021 -0.0245664
Vibration 8
-0.00302356 0.000188973 0.00075589
-0.00283459 -0.000188973 -0.00982658
-0.00151178 -0.00113384 -0.0134171
-0.000566918 -0.000566918 -0.013606
-0.000377945 0.000566918 -0.00396842
-0.00188973 0.00113384 0.00850377
0.000944863 0.00151178 -0.00604712
-0.00226767 0.00491329 0.0315584
-0.00264562 0.00925966 0.0540462
-0.00170075 -0.000377945 0.00264562
0.0170075 -0.00944863 0.0156847
0.0200311 -0.0109604 0.0153068
0.00264562 -0.00359048 0.00132281
-0.0162516 0.00491329 -0.0117163
-0.0175745 0.00585815 -0.0103935
0.00718096 -0.00566918 0.00226767
-0.00151178 -0.00132281 -0.0105825
-0.00604712 -0.00170075 -0.00793685
-0.00585815 0.00453534 0.00321253
-0.0020787 0.0115273 0.0119053
0.0020787 0.0102045 0.00680301
0.00283459 0.00340151 -0.00491329
-0.00302356 0.0302356 0.0192752
-0.0151178 0.00453534 -0.0187083
0.00226767 0.000188973 -0.0100155
0.00377945 -0.00453534 -0.000566918
0.00302356 -0.00680301 -0.00226767
0.00245664 -0.00529123 -0.00604712
0.00302356 -0.00151178 -0.00831479
0.00264562 -0.0103935 -0.000566918
0.0020787 -0.0124722 -0.00245664
0.00132281 -0.0111494 -0.00585815
0.00151178 -0.00736993 -0.0075589
0.00377945 0.000944863 -0.00812582
0.00302356 -0.00604712 0.00566918
0.00321253 0.00113384 -0.013984
-0.00321253 -0.000566918 -0.013606
0.00151178 -0.00907068 0.0096376
0.0294797 -0.0151178 0.0255113
0.0353379 -0.0177634 0.0255113
-0.0292908 0.0107714 -0.0222988
-0.0313695 0.0111494 -0.0190862
-0.00888171 -0.00661404 -0.0134171
-0.0105825 0.00396842 0.00661404
0.00699199 0.0145509 0.0132281
0.00585815 0.0020787 -0.00812582
0.0170075 -0.273632 -0.0368497
-0.0245664 0.151745 0.315773
-0.00302356 0.242641 -0.228279
-0.00699199 0.00075589 -0.0151178
-0.0134171 0.00396842 -0.0464873
-0.0396842 0.0154958 -0.00850377
0.00321253 -0.0115273 0.00226767
0.00188973 -0.0151178 -0.00113384
0.000566918 -0.0128501 -0.00736993
0.000944863 -0.0062361 -0.0102045
0.00510226 -0.00113384 -0.00529123
Vibration 9
-0.00604712 0.00226767 -0.00774788
-0.00566918 -0.000188973 -0.0232436
-0.00226767 -0.00226767 -0.0232436
0.000944863 -0.000377945 -0.0200311
0.000944863 0.00245664 -0.00718096
-0.00264562 0.0041574 0.00661404
0.00264562 0.00340151 -0.00604712
-0.00321253 0.0115273 0.0398732
-0.00377945 0.0188973 0.0719986
-0.00510226 0.00170075 -0.00510226
0.0147399 -0.00907068 0.00982658
0.0215429 -0.0126612 0.0134171
0.00642507 -0.00548021 0.00132281
-0.0154958 0.00548021 -0.0149288
-0.020409 0.00831479 -0.0173855
0.0162516 -0.0107714 0.00736993
-0.0020787 -0.0062361 -0.0170075
-0.0107714 -0.0304246 -0.0258892
-0.0113384 -0.0272121 -0.00850377
-0.00188973 0.00113384 0.0179524
0.00793685 0.020598 0.0241885
0.0075589 0.0162516 0.0062361
-0.00170075 0.00529123 0.0457314
-0.00075589 -0.00340151 -0.00850377
0.00151178 0.00321253 -0.00982658
-0.00377945 -0.00113384 0.00642507
0.00075589 -0.00075589 -0.00283459
0.00151178 0.0020787 -0.00925966
0.00075589 0.00548021 -0.0103935
0.00491329 -0.00321253 -0.00491329
0.00888171 -0.00321253 -0.0128501
0.00774788 -0.00151178 -0.0171965
0.00359048 0.000944863 -0.0149288
0.000566918 0.00944863 -0.0109604
-0.0126612 -0.00585815 0.0232436
0 0.00283459 -0.0115273
-0.00774788 -0.00132281 -0.0323143
-0.0164406 -0.00925966 0.0302356
0.0257003 -0.0145509 0.0181414
0.0385504 -0.020976 0.0253223
-0.0279679 0.0117163 -0.0247554
-0.0360938 0.0151178 -0.0279679
-0.0181414 -0.0504557 -0.0455424
-0.0175745 -0.0447865 -0.0156847
0.0143619 0.0400622 0.0427078
0.0149288 0.0315584 0.0107714
-0.0334482 0.181225 0.0874943
0.00944863 -0.0600933 -0.113762
0.020409 -0.110927 0.19502
0.0120942 -0.0100155 -0.000377945
-0.00321253 -0.00907068 -0.0359048
-0.0213539 0.013606 0.000377945
0.00529123 -0.00491329 -0.000944863
0.0126612 -0.00453534 -0.0153068
0.0100155 -0.0020787 -0.0226767
0.00170075 0.00188973 -0.0173855
-0.000944863 0.0020787 -0.000188973
Vibration 10
0.0128501 -0.00245664 -0.0238105
0.0124722 0.00359048 -0.0381725
0.00736993 0.00661404 -0.0308025
0.00359048 0.0041574 -0.020409
0.00302356 -0.00151178 -0.0075589
0.00812582 -0.00472431 -0.00888171
-0.00396842 -0.00604712 0.0149288
0.0075589 -0.00944863 0.0113384
0.00699199 -0.013606 0.0292908
0.0160627 -0.00396842 -0.013606
0.013984 -0.0141729 -0.00434637
0.0100155 -0.0122832 0.00642507
0.00736993 0.000566918 0.00736993
0.0130391 0.00888171 0.00132281
0.0177634 0.00566918 -0.00869274
-0.00113384 0.00359048 0.0168186
0.00774788 0.0062361 -0.0198421
-0.00699199 0.0181414 0
-0.00642507 0.00736993 0.0130391
0.00925966 -0.0160627 0.00585815
0.0239995 -0.0253223 -0.0113384
0.0228657 -0.0132281 -0.0236216
0.0103935 -0.0325033 0.0173855
-0.0251334 0.0309915 0.000566918
-0.0143619 0.000566918 0.0253223
0.00132281 0.00925966 -0.00604712
-0.0075589 0.00302356 0.00340151
-0.013984 0.0020787 0.00340151
-0.020787 0.0143619 0.00377945
-0.0145509 -0.00585815 0.0122832
-0.027401 -0.0164406 0.020598
-0.0302356 -0.0149288 0.0162516
-0.0222988 -0.00566918 0.00566918
-0.0364717 0.0379835 -0.00566918
0.0389284 0.0247554 -0.0546131
-0.0175745 -0.00396842 0.05518
0.0168186 0.0062361 -0.0496998
0.0646286 0.0325033 -0.089573
0.0147399 -0.0234326 -0.00661404
0.00793685 -0.0198421 0.0132281
0.013606 0.0173855 0.00434637
0.0224877 0.0117163 -0.0130391
-0.0194642 0.0349599 0.00434637
-0.0181414 0.0164406 0.0281569
0.0362827 -0.0421409 -0.0156847
0.034582 -0.020598 -0.0372276
0.000566918 -0.0258892 0.0228657
0.0239995 -0.0408181 0.00907068
0.00736993 -0.0449755 0.0300466
-0.0374166 0.0336371 0.00359048
-0.0107714 0.0461093 -0.020976
-0.0447865 0.0323143 0.00831479
-0.0124722 -0.00699199 0.0153068
-0.0349599 -0.0251334 0.0304246
-0.0385504 -0.0217318 0.0215429
-0.0228657 -0.00377945 0.000566918
-0.0202201 0.00151178 0.0292908
Vibration 11
0.00396842 -0.0096376 -0.0128501
0.00472431 -0.0154958 -0.0153068
0.0107714 -0.0187083 -0.000377945
0.0170075 -0.0149288 0.0130391
0.0177634 -0.00925966 0.0132281
0.0115273 -0.00529123 0.00302356
0.0179524 -0.00944863 0.0213539
0.0117163 0.0102045 0.0109604
0.0120942 0.027779 0.0196532
-0.00888171 -0.00245664 -0.020787
0.000188973 -0.0160627 -0.00566918
-0.0107714 -0.0103935 -0.00453534
-0.0304246 0.0075589 -0.0177634
-0.0478101 0.0253223 -0.0385504
-0.0364717 0.0187083 -0.0400622
-0.0349599 0.00925966 -0.0119053
0.0111494 -0.0175745 -0.0020787
0.0162516 -0.000188973 0.00529123
0.0158737 0.0105825 0.00396842
0.0102045 0.00264562 -0.00566918
0.00491329 -0.0171965 -0.0149288
0.00548021 -0.0262672 -0.0122832
0.00944863 0.0173855 -0.00642507
0.0383614 -0.0257003 0.0566918
0.0102045 -0.00774788 0.0126612
-0.0100155 0.00283459 -0.00925966
-0.00888171 0.00907068 -0.00113384
0.00359048 0.0102045 0.000566918
0.00699199 -0.000188973 0.00302356
-0.020787 0.013606 0.00661404
-0.0198421 0.0190862 0.013795
-0.00510226 0.0215429 0.0119053
0.00680301 0.0162516 0.00453534
0.00510226 -0.00604712 0.00340151
-0.0196532 0.0020787 -0.0117163
0.0041574 -0.0111494 0.0130391
0.00075589 -0.0177634 -0.0268341
-0.02759 0.00680301 -0.00661404
0.0177634 -0.0323143 0.00585815
-0.00170075 -0.0211649 0.00793685
-0.0701088 0.0445975 -0.0540462
-0.048188 0.0304246 -0.0538572
0.020787 0.00585815 0.0126612
0.0198421 0.0255113 0.0109604
0.000377945 -0.0245664 -0.0232436
0.00151178 -0.0394953 -0.0179524
0.0120942 0.0175745 -0.00774788
-0.00113384 0.0228657 -0.00245664
0.0168186 0.0247554 -0.0103935
0.062361 -0.0440306 0.0882502
0.00283459 -0.0642507 0.0978878
0.102045 0.00529123 0.0336371
-0.0311805 0.0120942 0.00718096
-0.0298577 0.0217318 0.020787
-0.00302356 0.0270231 0.0170075
0.0166296 0.0175745 0.00283459
-0.00377945 -0.00321253 -0.0120942
Vibration 12
-0.00132281 -0.00226767 -0.0328812
-0.00151178 0.00302356 -0.0430858
-0.0062361 0.00604712 -0.0200311
-0.0102045 0.00264562 -0.00302356
-0.0107714 -0.0020787 -0.00907068
-0.0062361 -0.00434637 -0.0145509
-0.00907068 -0.000944863 -0.0117163
-0.00699199 -0.0102045 0.00699199
-0.00774788 -0.0160627 0.0296687
0.00283459 -0.00472431 -0.0260782
-0.00188973 -0.013606 -0.0187083
0.000566918 -0.0154958 -0.00245664
0.00680301 -0.00736993 0.00529123
0.0124722 0.00132281 -0.000944863
0.0107714 0.00151178 -0.0162516
0.00793685 -0.0100155 0.0239995
-0.00661404 0.0119053 -0.00869274
-0.0149288 0.0308025 0.0102045
-0.0145509 0.0228657 0.013795
-0.00661404 -0.00642507 -0.00283459
0.000566918 -0.0173855 -0.0156847
-0.000188973 -0.00585815 -0.0171965
-0.00548021 -0.0281569 -0.00812582
-0.0228657 0.0221098 0.00188973
0.00396842 -0.00510226 -0.00132281
-0.000377945 -0.00113384 -0.00075589
0.00529123 0.0096376 0.00321253
0.00245664 -0.00151178 0.0291018
0.0124722 -0.0192752 0.0281569
0.0179524 0.034582 -0.0171965
0.0234326 0.0468652 -0.00850377
0.0126612 0.0313695 0.0255113
0.00170075 0.00661404 0.0447865
0.0332592 -0.0400622 0.0393063
-0.0289128 -0.00888171 0.0185193
0.0100155 -0.00075589 -0.0175745
0.00283459 0.00566918 -0.0616051
-0.0478101 -0.00604712 0.0376055
-0.00774788 -0.0194642 -0.0258892
-0.00264562 -0.0224877 0.00359048
0.0187083 0.00699199 0.00642507
0.0160627 0.00736993 -0.0202201
-0.0215429 0.0502667 0.0200311
-0.020409 0.0370386 0.027779
0.00699199 -0.0355268 -0.0249444
0.00510226 -0.0122832 -0.0255113
-0.00340151 -0.0372276 -0.0105825
0.00680301 -0.0323143 -0.00736993
-0.0198421 -0.0326923 -0.0119053
-0.0306136 0.0219208 0.00982658
-0.00925966 0.0353379 -0.0309915
-0.0504557 0.0315584 0.0132281
0.0258892 0.0462983 -0.0427078
0.0360938 0.0676522 -0.027401
0.0147399 0.0400622 0.0355268
-0.00434637 -0.00396842 0.0676522
0.0154958 -0.00226767 -0.0183303
Vibration 13
-0.0147399 -0.00283459 -0.00585815
-0.013795 -0.0171965 -0.00585815
-0.000944863 -0.0247554 0.000566918
0.0124722 -0.0170075 0.00944863
0.013606 -0.00340151 0.0096376
-0.000566918 0.00434637 0
0.0219208 0.000944863 0.0171965
0.000566918 0.0272121 -0.00604712
0.00132281 0.0527234 -0.013606
-0.020598 -0.000188973 -0.00888171
-0.0330702 0.00718096 -0.0194642
-0.0153068 -0.00245664 -0.00718096
0.0130391 -0.0194642 0.0143619
0.0173855 -0.0226767 0.0183303
0.000188973 -0.0128501 0.00680301
0.0445975 -0.0368497 0.0377945
-0.00075589 -0.0321253 -0.00642507
0.00529123 -0.0238105 -0.00585815
0.00453534 -0.00736993 -0.00472431
-0.00302356 -0.00075589 -0.00472431
-0.00888171 -0.0213539 -0.013984
-0.00793685 -0.0362827 -0.0141729
-0.00472431 0.034393 0.00699199
-0.0336371 0.00396842 -0.0340151
0.0175745 0.00075589 0.00944863
-0.00359048 0.0109604 -0.0062361
-0.00472431 0.0134171 0.00170075
0.0113384 0.0190862 -0.00661404
0.0132281 0.0107714 -0.00377945
-0.0230547 0.0102045 0.0177634
-0.0211649 0.013606 0.0200311
0.0020787 0.0230547 0.00340151
0.0179524 0.0245664 -0.0102045
0.00907068 0.00718096 -0.00472431
-0.00944863 0.0105825 -0.00850377
0.0128501 -0.00170075 0.0143619
-0.0236216 -0.0230547 -0.0109604
-0.0162516 0.0128501 -0.00264562
-0.0548021 0.0200311 -0.0359048
-0.0222988 0.00226767 -0.0134171
0.0374166 -0.0353379 0.0334482
0.00529123 -0.0164406 0.0113384
0.0109604 -0.0266451 -0.00434637
0.00982658 0.00264562 -0.0020787
-0.0143619 -0.0228657 -0.0185193
-0.0126612 -0.0487549 -0.0187083
-0.00907068 0.0434637 0.0103935
-0.0257003 0.0442196 0.0120942
0.0196532 0.0461093 0.00888171
-0.027779 0.00283459 -0.0360938
-0.013984 0.0196532 -0.111494
-0.111494 0.0170075 -0.00302356
-0.0393063 0.00340151 0.0289128
-0.0366607 0.0096376 0.034393
0.00661404 0.0281569 0.00283459
0.0319364 0.0300466 -0.0213539
0.00188973 0.00529123 -0.0103935
Vibration 14
-0.00642507 -0.0126612 0.0241885
-0.00604712 -0.0164406 0.0319364
-0.0020787 -0.0187083 -0.0122832
0.00283459 -0.0151178 -0.0546131
0.00302356 -0.00982658 -0.0457314
-0.000944863 -0.0096376 -0.0103935
0.00812582 -0.00793685 -0.0591484
-0.00113384 -0.0111494 -0.0020787
-0.00151178 -0.0168186 0.00869274
-0.0075589 -0.013606 0.0317474
-0.00188973 -0.00774788 0.0268341
-0.0041574 -0.00585815 0.0103935
-0.0134171 -0.0132281 0.000188973
-0.0143619 -0.0232436 0.00888171
-0.0122832 -0.0230547 0.0241885
-0.0211649 -0.00699199 -0.0266451
-0.00226767 -0.0188973 -0.0117163
-0.00188973 -0.00774788 -0.00472431
-0.00226767 0.000566918 -0.000377945
-0.00321253 -0.00377945 -0.0041574
-0.00340151 -0.0190862 -0.0141729
-0.00302356 -0.0253223 -0.0168186
-0.00396842 0.0109604 0.00396842
0.00321253 -0.0391173 -0.0117163
0.00699199 -0.000944863 -0.0164406
0.000188973 0.0170075 0.020598
0.00831479 0.0241885 0.0132281
-0.0041574 0.0164406 0.0268341
0.00869274 0.0330702 0.00907068
0.0281569 0.0353379 -0.0075589
0.0260782 0.0334482 -0.00680301
-0.00113384 0.0183303 0.020787
-0.0158737 0.00869274 0.0366607
0.0228657 0.0937304 0.00661404
0.0062361 0.0222988 0.00188973
0.00188973 -0.00699199 0.00793685
-0.00907068 -0.0183303 0.0670853
0.020976 0.0321253 -0.0221098
0.00510226 -0.00321253 0.034393
-0.000188973 0.00113384 0.00453534
-0.0187083 -0.0298577 0.00302356
-0.0166296 -0.0302356 0.0294797
-0.000944863 -0.00434637 -0.00170075
-0.0020787 0.0109604 0.00642507
-0.00396842 -0.0247554 -0.0187083
-0.00340151 -0.034582 -0.0226767
-0.0075589 0.0147399 0.00604712
-0.0122832 0.0153068 0.00680301
0.00774788 0.0160627 0.00529123
0.00151178 -0.0315584 -0.0323143
-0.00302356 -0.0427078 0.027779
0.0279679 -0.0646286 -0.0226767
0.0453534 0.0445975 -0.0247554
0.0445975 0.0423299 -0.0257003
-0.00736993 0.0153068 0.0281569
-0.0330702 -0.000377945 0.0514005
-0.00472431 0.00888171 0.0410071
Vibration 15
-0.00396842 -0.00510226 -0.00566918
-0.00472431 0.000377945 -0.00585815
-0.0102045 0.0041574 -0.00283459
-0.0124722 0.00151178 -0.0041574
-0.013984 -0.00226767 -0.0126612
-0.00869274 -0.00642507 -0.00793685
-0.00736993 0.000188973 -0.0249444
-0.00944863 -0.0291018 0.000944863
-0.0109604 -0.0634948 0.0128501
0.000377945 -0.00869274 -0.00113384
0.00396842 -0.013606 0.00453534
0.00151178 -0.0126612 0.00453534
-0.00585815 -0.0075589 -0.000944863
-0.00510226 -0.00566918 -0.00264562
-0.0020787 -0.00718096 -0.00264562
-0.0160627 -0.00245664 -0.00642507
-0.0109604 0.00774788 0.000944863
-0.013606 0.00170075 -0.00151178
-0.0134171 -0.0020787 -0.00151178
-0.0122832 0.00113384 0.00170075
-0.0102045 0.0111494 0.00699199
-0.0102045 0.0130391 0.00548021
-0.0119053 -0.00869274 -0.00132281
-0.00283459 -0.0075589 0.00642507
0.00302356 -0.000188973 -0.00566918
-0.0020787 0.0113384 0.0215429
-0.0234326 -0.00245664 0.0430858
0.0115273 0.0179524 0.00585815