[Molden Format]
[FREQ]
-160.7
16.2
26.9
28.3
29.8
38.1
42.8
43.4
54.1
56.1
69.8
83.4
102.1
108.5
117.6
127.9
137.1
141.6
153.0
179.8
198.1
203.1
220.7
230.7
233.1
247.8
258.6
273.7
289.6
296.1
315.7
320.2
331.1
346.1
351.2
356.9
369.3
377.6
389.8
420.0
433.9
454.5
481.0
495.3
510.8
523.7
529.6
534.8
542.2
565.0
568.7
584.7
603.9
610.9
616.4
631.4
639.0
648.5
657.0
674.6
677.2
706.3
724.2
755.3
776.2
798.7
812.8
824.2
843.9
852.5
874.9
881.0
882.6
896.8
901.3
940.4
960.6
976.8
1000.4
1009.5
1010.4
1016.6
1017.2
1021.5
1030.9
1033.2
1042.7
1070.4
1073.8
1081.5
1103.3
1123.7
1125.9
1159.6
1177.6
1181.1
1181.8
1186.3
1209.4
1223.5
1249.7
1262.3
1264.2
1268.7
1273.3
1279.2
1282.1
1286.1
1293.5
1301.3
1308.4
1315.7
1329.2
1340.2
1345.6
1350.9
1351.6
1365.2
1365.6
1382.3
1393.7
1426.0
1428.3
1479.1
1500.2
1519.2
1525.9
1529.1
1533.1
1560.3
1585.1
1595.8
1614.1
1655.2
1671.9
1697.4
1698.2
1707.2
1708.1
1712.4
1766.4
1796.1
2031.1
2449.6
2651.5
2653.5
2664.9
2672.7
2729.0
2732.1
2734.1
2744.3
2744.8
2745.5
2749.2
2751.1
2759.5
2760.3
2761.6
2764.4
2765.0
2765.5
2768.9
2771.9
2778.9
       
[FR-COORD]
C -2.15013 -2.9132 -0.863038
C 0.492841 -2.9132 -0.863038
C 1.79524 -0.620019 -0.863038
N 0.578634 1.63764 -0.849432
C -2.00953 1.68129 -0.623799
C -3.44648 -0.608681 -0.741528
N -3.12958 3.9705 -0.29064
C -6.10967 -0.513061 -0.720553
N -8.29741 -0.422543 -0.702411
C -3.50431 -5.32298 -0.968863
C -3.01279 -7.002 -2.96082
C -4.28004 -9.28536 -3.10444
C -6.04504 -9.89272 -1.21169
C -6.53883 -8.25546 0.796897
C -5.25816 -5.96057 0.896297
O -7.14014 -12.1791 -1.57584
C 4.57427 -0.54821 -0.825243
C 5.82168 0.801811 1.06958
C 8.44859 0.840172 1.13516
C 9.8398 -0.457692 -0.696931
C 8.58087 -1.80752 -2.58949
C 5.9549 -1.86044 -2.65318
C 12.6536 -0.388717 -0.665184
C -9.03724 -12.9337 0.171398
C 1.02348 7.06417 -0.50758
C -1.78617 6.16825 0.661971
C -0.3753 5.88158 3.15565
C 1.99933 6.62935 2.15958
C 2.18093 4.61641 -2.20153
C -0.677656 5.22056 5.63516
C 1.51291 5.32052 7.15148
C 3.83595 6.06753 6.17846
C 4.12641 6.75823 3.61996
O 3.43023 3.8832 -3.81328
O -3.51489 8.11637 0.650066
O 1.16124 8.92744 -1.85892
H 1.52954 -4.68803 -0.838849
H -5.05445 4.13245 -0.33656
H -1.63896 -6.4914 -4.41327
H -3.94537 -10.6063 -4.64249
H -7.89811 -8.72808 2.2569
H -5.62987 -4.65515 2.45097
H 4.73471 1.82585 2.49671
H 9.41896 1.88878 2.61349
H 9.66122 -2.81172 -4.02247
H 4.97622 -2.90224 -4.13718
H 13.3781 0.891951 -2.13917
H 13.483 -2.25973 -1.02537
H 13.424 0.274577 1.14442
H -9.61889 -14.7771 -0.588272
H -10.628 -11.6109 0.154202
H -8.24676 -13.1515 2.06963
H -2.48442 4.65213 6.42148
H 1.364 4.80104 9.13645
H 5.47926 6.13122 7.41377
H 5.94394 7.36181 2.88334
H -2.99805 9.40951 -0.6272

[FR-NORM-COORD]
Vibration 1
-0.00661404 -0.0120942 0.0041574
-0.0109604 -0.0385504 0.00226767
-0.00226767 -0.0393063 0.034771
0.0107714 -0.0447865 0.0731324
0.0177634 -0.020409 0.0196532
-0.00075589 -0.00359048 0.0105825
0.0334482 0.0122832 -0.0565028
0.000377945 0.00264562 0.00340151
0.000377945 0.0075589 -0.000377945
-0.0147399 -0.00699199 -0.00226767
-0.0130391 -0.0041574 -0.00359048
-0.00907068 -0.00642507 -0.0020787
-0.00642507 -0.00680301 -0.000377945
-0.00831479 -0.00869274 0.000188973
-0.0109604 -0.00718096 0
-0.00434637 -0.00869274 0.000566918
-0.00113384 -0.0279679 0.020976
0.000377945 -0.013606 0.00982658
0.00075589 -0.00132281 0.000188973
-0.00075589 0 -0.00132281
-0.00170075 -0.00340151 0.0020787
-0.00188973 -0.0168186 0.0126612
-0.000188973 0.00321253 -0.00472431
-0.00434637 -0.00718096 0.000566918
-0.0536682 0.153446 0.0591484
-0.0020787 0.0103935 -0.00982658
-0.000188973 -0.00245664 -0.00340151
-0.0105825 0.0517785 0.00548021
0.110549 0.0587705 -0.105447
0.00529123 -0.027401 -0.0103935
0.0062361 -0.0228657 -0.0109604
0.00245664 -0.00774788 -0.00831479
-0.00510226 0.0287238 0.000377945
0.0616051 -0.0368497 -0.0839038
-0.0500777 -0.0222988 0.0500777
-0.0166296 0.0852266 0.00888171
-0.020976 -0.0432747 -0.0226767
0.0315584 0.00283459 -0.048566
-0.0149288 -0.000944863 -0.0041574
-0.00831479 -0.00661404 -0.00132281
-0.00661404 -0.0105825 0.00075589
-0.0102045 -0.00736993 0
-0.00113384 -0.0134171 0.00774788
0.00113384 0.00529123 -0.00566918
-0.00264562 0.00264562 -0.00283459
-0.00321253 -0.0198421 0.0156847
-0.00302356 0.00151178 -0.00718096
0 0.00302356 -0.00302356
0.000377945 0.00585815 -0.0062361
-0.00510226 -0.00736993 0.0020787
-0.00396842 -0.00661404 0.000188973
-0.00434637 -0.00604712 0.00075589
0.0109604 -0.0529123 -0.0151178
0.0105825 -0.0383614 -0.0141729
0.00566918 -0.020409 -0.0115273
-0.00699199 0.0410071 0.00491329
-0.183681 -0.0436527 -0.0128501
Vibration 2
0.00302356 0.00718096 -0.0143619
0.00302356 0.0062361 -0.0128501
0.00377945 0.00585815 -0.0151178
0.00472431 0.0062361 -0.0170075
0.00434637 0.0075589 -0.0239995
0.00377945 0.00812582 -0.0241885
0.00453534 0.00925966 -0.0313695
0.00377945 0.00944863 -0.0326923
0.00377945 0.0105825 -0.0406291
0.00226767 0.00699199 -0.00151178
0.00245664 -0.00642507 0.00982658
0.00321253 -0.00774788 0.0258892
0.00377945 0.00453534 0.0304246
0.00264562 0.0185193 0.0187083
0.00188973 0.0196532 0.00264562
0.00529123 0.00113384 0.0470542
0.00396842 0.0041574 -0.0153068
0.00529123 -0.00812582 -0.0075589
0.00529123 -0.00925966 -0.00925966
0.00377945 0.00226767 -0.0185193
0.00226767 0.0143619 -0.0260782
0.0020787 0.0151178 -0.0245664
0.00377945 0.00188973 -0.020598
0.00774788 0.0115273 0.0542351
0.0103935 0.00377945 0.0171965
0.000188973 0.00245664 -0.00907068
-0.0183303 -0.0164406 -0.000566918
-0.00907068 -0.0175745 0.020787
0.0134171 0.0117163 0.00548021
-0.0379835 -0.0323143 -0.00718096
-0.048188 -0.0504557 0.00869274
-0.0389284 -0.0519675 0.0296687
-0.0187083 -0.0351489 0.0364717
0.0166296 0.0198421 0.00434637
0.00321253 0.00491329 -0.00982658
0.0253223 0.0128501 0.0311805
0.00264562 0.00604712 -0.00907068
0.00472431 0.0100155 -0.0391173
0.00226767 -0.0158737 0.0062361
0.00359048 -0.0183303 0.0351489
0.00264562 0.0285349 0.0217318
0.00132281 0.0304246 -0.00661404
0.00642507 -0.0170075 -0.000377945
0.00661404 -0.0187083 -0.00340151
0.000944863 0.0232436 -0.0332592
0.00075589 0.0245664 -0.0302356
0.00283459 0.00888171 -0.0149288
0.00321253 0.00340151 -0.0304246
0.00548021 -0.00718096 -0.0179524
0.0102045 0.00472431 0.0685971
0.00566918 0.00888171 0.0451645
0.00944863 0.0270231 0.055369
-0.0455424 -0.0313695 -0.0236216
-0.0636838 -0.0636838 0.00396842
-0.0470542 -0.0668963 0.041385
-0.0115273 -0.0362827 0.0534792
0.013606 0.0111494 0.000944863
Vibration 3
-0.0100155 0.0117163 -0.0177634
-0.0102045 0.00888171 -0.0253223
-0.00793685 0.0075589 -0.0170075
-0.00566918 0.00869274 -0.0111494
-0.00548021 0.0107714 -0.00736993
-0.00774788 0.0119053 -0.00529123
-0.00283459 0.0117163 -0.00510226
-0.0075589 0.0117163 0.013606
-0.0075589 0.0103935 0.0309915
-0.00982658 0.0113384 -0.0181414
-0.0370386 0.0285349 -0.0389284
-0.02759 0.0228657 -0.0319364
0.0109604 -0.000188973 -0.00340151
0.034393 -0.0143619 0.013984
0.0230547 -0.0075589 0.00604712
0.0217318 -0.00661404 0.0041574
-0.00793685 0.00151178 -0.00793685
-0.0124722 -0.0113384 0.0041574
-0.0126612 -0.0258892 0.020787
-0.00831479 -0.0270231 0.0249444
-0.00396842 -0.0107714 0.0102045
-0.00377945 0.00359048 -0.0062361
-0.00812582 -0.0478101 0.0455424
0.0714316 -0.0383614 0.0442196
0.000188973 0.0075589 -0.00264562
0 0.00907068 -0.00264562
0.00113384 0.00359048 -0.00377945
0.00132281 0.00264562 -0.00396842
-0.0020787 0.00736993 -0.00548021
0.00188973 -0.000377945 -0.00472431
0.00302356 -0.00585815 -0.00604712
0.00340151 -0.00699199 -0.0062361
0.00245664 -0.00264562 -0.00510226
-0.00075589 0.00831479 -0.00491329
0.0020787 0.0107714 0.00151178
0.00188973 0.00869274 -0.00075589
-0.0120942 0.00736993 -0.0355268
-0.00283459 0.0132281 -0.00170075
-0.0650066 0.0455424 -0.0593374
-0.048188 0.0351489 -0.0470542
0.0612271 -0.0306136 0.0336371
0.0410071 -0.0179524 0.0188973
-0.0158737 -0.0111494 0.00151178
-0.0164406 -0.0372276 0.0311805
-0.000377945 -0.0100155 0.0124722
-0.000188973 0.0153068 -0.0168186
0.013984 -0.075778 0.0323143
-0.020976 -0.0602823 0.0797464
-0.0164406 -0.027401 0.041574
0.075589 -0.041196 0.0478101
0.055369 -0.0568808 0.0878723
0.11773 -0.0391173 0.0247554
0.00170075 0.000377945 -0.00453534
0.00377945 -0.00925966 -0.00680301
0.0041574 -0.0111494 -0.00718096
0.00283459 -0.00377945 -0.00529123
0.00188973 0.0115273 0.00226767
Vibration 4
0.0111494 -0.00661404 0.00831479
0.0105825 -0.00680301 0.00226767
0.0103935 -0.0062361 0.00302356
0.0100155 -0.00642507 0.00453534
0.0100155 -0.00642507 0.00302356
0.0109604 -0.00718096 0.0134171
0.00699199 -0.00491329 -0.013795
0.0107714 -0.0105825 0.0309915
0.0107714 -0.0143619 0.047999
0.00793685 -0.00510226 0.00604712
-0.0232436 0.0145509 -0.0179524
-0.0334482 0.020598 -0.0257003
-0.0111494 0.00718096 -0.00925966
0.0228657 -0.013795 0.0160627
0.0317474 -0.0188973 0.0234326
-0.0268341 0.0164406 -0.0211649
0.0103935 -0.0062361 -0.00264562
0.0160627 0.013606 -0.020409
0.0160627 0.0153068 -0.0289128
0.0111494 -0.00340151 -0.0194642
0.00585815 -0.0243775 -0.000944863
0.00566918 -0.0255113 0.00736993
0.0111494 -0.000188973 -0.0294797
-0.00869274 0.0062361 -0.00585815
0.00566918 -0.0020787 0.00321253
-0.00132281 -0.000188973 -0.013606
-0.0183303 0.00888171 -0.00283459
-0.0111494 0.00340151 0.0102045
0.0147399 -0.00188973 0.00850377
-0.0364717 0.0198421 -0.00226767
-0.0470542 0.0241885 0.0126612
-0.0394953 0.0175745 0.0253223
-0.0211649 0.00699199 0.0245664
0.0179524 -0.00188973 0.0111494
-0.00302356 -0.00170075 -0.0319364
0.0141729 -0.00340151 0.00188973
0.0103935 -0.00699199 -0.00264562
0.00642507 -0.00907068 -0.0170075
-0.0402512 0.0251334 -0.0300466
-0.0587705 0.0360938 -0.0444086
0.041574 -0.0253223 0.0296687
0.0570697 -0.0338261 0.0417629
0.0200311 0.02759 -0.027401
0.020409 0.0315584 -0.0430858
0.00170075 -0.0394953 0.00642507
0.00188973 -0.041385 0.020976
0.00359048 0.00661404 -0.027401
0.0132281 0.00264562 -0.0393063
0.0166296 -0.00566918 -0.0296687
-0.0298577 0.0192752 -0.0213539
-0.000944863 0.0160627 0.0317474
0.0151178 -0.0224877 -0.0190862
-0.0427078 0.0249444 -0.0124722
-0.0612271 0.0328812 0.013795
-0.047999 0.020787 0.0362827
-0.0156847 0.00302356 0.0349599
0.00434637 -0.00566918 -0.0328812
Vibration 5
0.00869274 -0.00850377 -0.00340151
0.00869274 -0.0062361 -0.00793685
0.00548021 -0.00453534 -0.00585815
0.00245664 -0.00604712 -0.00831479
0.00283459 -0.00812582 -0.00642507
0.00585815 -0.0100155 -0.00113384
0.00170075 -0.00831479 -0.00831479
0.00566918 -0.0145509 0.00869274
0.00566918 -0.0187083 0.0175745
0.00548021 -0.00699199 0.00132281
-0.0241885 0.00245664 -0.013606
-0.0381725 0.0100155 -0.0132281
-0.020976 0.00812582 0.0020787
0.0128501 -0.00321253 0.0196532
0.0255113 -0.0103935 0.0190862
-0.041385 0.0185193 -0.00226767
0.00529123 0.00491329 0.00359048
-0.0100155 -0.0158737 0.0283459
-0.0105825 0.00075589 0.0376055
0.00377945 0.0387394 0.0215429
0.0187083 0.0578256 -0.0020787
0.0192752 0.0404401 -0.0109604
0.00321253 0.0593374 0.0300466
-0.0306136 0.0219208 0.0109604
0.00151178 -0.00850377 -0.00925966
0.00226767 -0.00907068 -0.00699199
0.00529123 -0.0130391 -0.00907068
0.0041574 -0.0119053 -0.0107714
-0.000944863 -0.00718096 -0.0107714
0.00869274 -0.0190862 -0.0102045
0.0109604 -0.0236216 -0.0132281
0.00982658 -0.0219208 -0.0147399
0.00642507 -0.0160627 -0.013606
-0.0020787 -0.00699199 -0.0117163
0.00245664 -0.00925966 -0.00283459
0.000188973 -0.00718096 -0.0075589
0.0105825 -0.00510226 -0.0117163
0.00170075 -0.00925966 -0.00642507
-0.0374166 0.0041574 -0.0255113
-0.0625499 0.0177634 -0.0253223
0.0283459 -0.00604712 0.0332592
0.0508336 -0.0181414 0.0315584
-0.0213539 -0.0436527 0.0396842
-0.0222988 -0.0156847 0.0568808
0.0300466 0.0867384 -0.013606
0.0306136 0.0555579 -0.0291018
-0.00170075 0.0748331 0.041196
0.0175745 0.0676522 0.0190862
-0.00642507 0.0519675 0.0368497
-0.0555579 0.0336371 0.00170075
-0.0187083 0.0366607 0.0381725
-0.0130391 -0.000944863 0.000944863
0.0096376 -0.020409 -0.00907068
0.013606 -0.0283459 -0.0143619
0.0115273 -0.0253223 -0.0168186
0.00566918 -0.0154958 -0.0149288
0.00151178 -0.00774788 -0.00170075
Vibration 6
-0.00585815 0.00377945 0.0190862
-0.00548021 0.00188973 0.0115273
-0.00396842 0.000566918 0.00661404
-0.00113384 0.00151178 0.00245664
-0.000377945 0.00510226 0.00529123
-0.00283459 0.00529123 0.0243775
0.00226767 0.0103935 -0.0164406
-0.00245664 0.00944863 0.0519675
-0.0020787 0.013984 0.0797464
-0.00302356 0.00264562 0.013984
0.0238105 -0.00113384 0.0230547
0.0326923 -0.00510226 0.013606
0.0124722 -0.00585815 -0.00510226
-0.0153068 -0.00226767 -0.0149288
-0.0222988 0.00132281 -0.00491329
0.0245664 -0.0103935 -0.0124722
-0.00359048 -0.00170075 0.0020787
0 -0.0444086 0.0296687
0.000377945 -0.048377 0.0258892
-0.0041574 -0.00718096 -0.00680301
-0.00850377 0.0374166 -0.0357158
-0.00869274 0.0393063 -0.0311805
-0.00396842 -0.0109604 -0.0109604
0.00302356 -0.0105825 -0.0360938
0.00888171 0.00340151 -0.00793685
0.00226767 0.0115273 -0.0181414
-0.00774788 0.0120942 -0.0120942
-0.000944863 -0.000944863 -0.00548021
0.00850377 -0.00321253 -0.00642507
-0.0196532 0.0160627 -0.0126612
-0.0236216 0.00396842 -0.00604712
-0.0160627 -0.0119053 0
-0.0041574 -0.0145509 0.000566918
0.00812582 -0.0115273 -0.00283459
0.00548021 0.0141729 -0.0294797
0.020787 0.00113384 -0.00907068
-0.00585815 0.00151178 0.00944863
0.00226767 0.0111494 -0.0154958
0.0385504 -0.000566918 0.0370386
0.0544241 -0.00793685 0.020787
-0.0309915 -0.00264562 -0.0296687
-0.0432747 0.00264562 -0.0109604
0.00340151 -0.0740773 0.0531013
0.00377945 -0.0833369 0.048377
-0.0119053 0.0706758 -0.0614161
-0.0126612 0.0735103 -0.0523454
-0.0041574 0.000944863 -0.000566918
-0.00812582 -0.00944863 -0.0294797
0.000377945 -0.0287238 -0.00642507
0.0185193 -0.0145509 -0.0387394
-0.000377945 -0.0151178 -0.0616051
-0.0221098 -0.00302356 -0.0247554
-0.0253223 0.0272121 -0.0177634
-0.0326923 0.00661404 -0.00604712
-0.0188973 -0.0222988 0.00453534
0.0020787 -0.0272121 0.00548021
0.0111494 0.00944863 -0.0317474
Vibration 7
-0.0164406 -0.000944863 0.0041574
-0.0162516 -0.0111494 0.0192752
-0.00869274 -0.0156847 0.0239995
-0.000944863 -0.0117163 0.0213539
-0.00151178 -0.0020787 0.00907068
-0.00944863 0.00321253 -0.00302356
0.00699199 0.0020787 0.00718096
-0.00907068 0.0119053 -0.0272121
-0.00907068 0.0187083 -0.0498888
-0.0219208 0.00226767 -0.00548021
-0.02759 0.0115273 -0.0147399
-0.020787 0.00793685 -0.0162516
-0.00680301 -0.00566918 -0.0075589
-0.00736993 -0.0111494 -0.00340151
-0.0156847 -0.0062361 -0.00283459
0.00642507 -0.0124722 -0.00548021
-0.00850377 -0.0170075 0.0215429
-0.00566918 -0.0219208 0.0232436
-0.00548021 -0.00245664 0.00472431
-0.00888171 0.0224877 -0.0156847
-0.0119053 0.0200311 -0.0117163
-0.0120942 -0.000377945 0.00718096
-0.00944863 0.0574477 -0.0432747
0.0423299 -0.0417629 0.020787
0.0183303 -0.0096376 0.00132281
0.013795 0.00113384 -0.000188973
0.00907068 0.00869274 0.00340151
0.0128501 -0.00226767 0.0041574
0.0179524 -0.0160627 0.00982658
0.00264562 0.0236216 0.00661404
0 0.0264562 0.0102045
0.0041574 0.0141729 0.0103935
0.0107714 -0.000944863 0.00718096
0.0173855 -0.0302356 0.0164406
0.020409 0.00699199 -0.0113384
0.0247554 -0.0147399 -0.00529123
-0.0226767 -0.0149288 0.0238105
0.00774788 0.0102045 0.00113384
-0.0360938 0.020976 -0.0192752
-0.0241885 0.0141729 -0.0222988
-0.00113384 -0.0188973 -0.000188973
-0.0160627 -0.0100155 0
-0.00340151 -0.0385504 0.0366607
-0.00264562 -0.00491329 0.00453534
-0.0147399 0.0355268 -0.0247554
-0.0147399 -0.00075589 0.00944863
-0.0440306 0.129446 0.00188973
0.013795 0.0848487 -0.13058
0.00075589 -0.00699199 -0.0238105
0.0574477 -0.0489439 0.0264562
0.0234326 -0.0640617 0.0447865
0.0718096 -0.0330702 0.00944863
-0.000377945 0.0330702 0.00642507
-0.00529123 0.0385504 0.0130391
0.00188973 0.0162516 0.0130391
0.013795 -0.0103935 0.00718096
0.0272121 0.00075589 -0.0147399
Vibration 8
-0.0107714 0.0062361 0.0100155
-0.0103935 0.00264562 0.0105825
-0.00642507 0.000188973 0.00529123
-0.00453534 0.00151178 -0.00510226
-0.00396842 0.0062361 -0.00377945
-0.0075589 0.00812582 0.0096376
0.00283459 0.0124722 -0.0185193
-0.00718096 0.0132281 0.0270231
-0.00680301 0.0185193 0.0451645
-0.0102045 0.0062361 0.00585815
0.00151178 0.0075589 0.00736993
0.00907068 0.00396842 0.00226767
0.00396842 -0.00132281 -0.00396842
-0.0103935 -0.00151178 -0.00736993
-0.0171965 0.00226767 -0.00226767
0.0149288 -0.00604712 -0.00699199
-0.00680301 0.000944863 0.00982658
-0.0115273 0.0421409 -0.0162516
-0.0120942 0.0559359 -0.0171965
-0.00642507 0.0245664 0.00907068
-0.000944863 -0.0230547 0.0394953
-0.000944863 -0.034204 0.0394953
-0.00699199 0.0442196 0.00491329
0.0153068 -0.0158737 -0.0111494
0.0188973 -0.00661404 -0.00566918
0.0109604 0.00510226 -0.0117163
0.00642507 -0.0109604 -0.0109604
0.0117163 -0.020598 -0.00491329
-0.00377945 -0.00151178 -0.0170075
-0.000377945 -0.0226767 -0.0149288
-0.00151178 -0.0438416 -0.0119053
0.00340151 -0.0504557 -0.00510226
0.0102045 -0.0381725 -0.000944863
-0.0260782 -0.00566918 -0.0325033
0.0211649 0.013606 -0.0102045
0.0300466 0.000944863 0.00491329
-0.0134171 0.00075589 0.0156847
0.00359048 0.0183303 -0.0183303
0.00548021 0.0115273 0.0124722
0.0190862 0.00491329 0.00377945
-0.0158737 -0.00491329 -0.013606
-0.027779 0.00132281 -0.00396842
-0.0162516 0.0640617 -0.0349599
-0.0164406 0.0910848 -0.0393063
0.00321253 -0.0508336 0.061983
0.00396842 -0.0697309 0.0612271
-0.0196532 0.0555579 0.00850377
0.00774788 0.0525344 -0.00321253
-0.00944863 0.0436527 0.0062361
0.0283459 -0.0202201 -0.0105825
0.00736993 -0.0255113 -0.0166296
0.0115273 -0.00907068 -0.00869274
-0.00453534 -0.0166296 -0.0202201
-0.00661404 -0.0548021 -0.0151178
0.00226767 -0.0661404 -0.00264562
0.0141729 -0.0430858 0.00472431
0.0332592 0.0162516 -0.00302356
Vibration 9
-0.00132281 -0.000566918 0.0126612
-0.00132281 -0.00188973 0.020787
-0.000944863 -0.0020787 0.0164406
-0.000377945 -0.00226767 0.0107714
-0.00075589 -0.000566918 0.00566918
-0.00132281 0 0.00396842
0.00113384 0.00113384 0
-0.00132281 0 -0.0103935
-0.00151178 -0.000377945 -0.0243775
-0.00188973 0 0.00831479
-0.00434637 0.00661404 0.00226767
-0.00453534 0.00699199 -0.00359048
-0.00170075 0.00075589 -0.00302356
0.00075589 -0.00566918 0.00283459
0.000188973 -0.00548021 0.00831479
-0.00151178 0.00151178 -0.00925966
-0.000944863 0 0.0117163
0.00226767 -0.00377945 0.0115273
0.00302356 0.00359048 0.00151178
-0.000944863 0.0145509 -0.00812582
-0.00491329 0.0160627 -0.00774788
-0.00434637 0.00869274 0.00226767
-0.000566918 0.00510226 -0.020976
0.00510226 -0.0075589 -0.0062361
0.00661404 -0.0041574 -0.000566918
0.00340151 0.000944863 -0.0020787
0.00075589 0.00151178 -0.00075589
0.00340151 -0.00510226 0.000566918
0.00151178 -0.0020787 -0.00188973
-0.00283459 0.00472431 -0.000377945
-0.00377945 0.000188973 0.00132281
-0.000944863 -0.00718096 0.00226767
0.00264562 -0.00982658 0.00188973
-0.00774788 -0.00869274 -0.00566918
0.00642507 0.00359048 -0.00736993
0.0096376 -0.00283459 0.00113384
-0.0020787 -0.00226767 0.0272121
0.00151178 0.00340151 -0.00302356
-0.0062361 0.0113384 0.00226767
-0.00680301 0.0122832 -0.00850377
0.00264562 -0.0105825 0.00302356
0.00151178 -0.00982658 0.0120942
0.00510226 -0.0113384 0.0190862
0.00453534 0.000944863 0.00245664
-0.00604712 0.0234326 -0.013795
-0.00774788 0.0105825 0.00302356
0.0177634 -0.328434 -0.300277
-0.0268341 -0.0873053 0.390417
0.00831479 0.392118 -0.167241
0.00529123 -0.00548021 -0.0113384
0.00321253 -0.0096376 0.00359048
0.0111494 -0.013606 -0.00944863
-0.00491329 0.0102045 -0.00113384
-0.00661404 0.00226767 0.00151178
-0.00170075 -0.0109604 0.00340151
0.00491329 -0.0154958 0.00283459
0.0124722 0.00283459 -0.00585815
Vibration 10
-0.00736993 -0.00736993 -0.0377945
-0.00661404 -0.0117163 -0.0563138
-0.00188973 -0.0147399 -0.034771
0.00302356 -0.0115273 -0.013984
0.00453534 -0.00774788 -0.00793685
-0.000944863 -0.00491329 -0.0107714
0.00793685 -0.00793685 0.00510226
-0.000377945 0.00434637 0.0228657
0.000377945 0.0151178 0.0557469
-0.0120942 -0.00491329 -0.0319364
-0.00113384 -0.0258892 -0.0117163
0.00075589 -0.0281569 0.00491329
-0.0102045 -0.0096376 0.000566918
-0.0258892 0.0134171 -0.0221098
-0.0258892 0.013795 -0.0379835
-0.00340151 -0.0162516 0.0222988
-0.0020787 -0.0126612 -0.0217318
-0.0185193 -0.0020787 -0.0175745
-0.0194642 0.013606 -0.00434637
-0.00302356 0.0181414 0.00491329
0.013984 0.00396842 0.00377945
0.0143619 -0.0113384 -0.00982658
-0.00359048 0.0364717 0.0168186
-0.00566918 -0.00245664 0.0258892
0.0062361 -0.00359048 0.00831479
0.00850377 -0.00907068 0.00548021
0.0062361 -0.00283459 0.00774788
0.00510226 0.00340151 0.0096376
0.0198421 -0.00321253 0.0103935
0.00359048 0.00774788 0.0102045
-0.000377945 0.0260782 0.0149288
-0.00170075 0.0323143 0.0168186
0.00113384 0.020409 0.013984
0.034393 0.00113384 0.0200311
0.00699199 -0.00944863 0.00548021
0.00453534 -0.00642507 0.00472431
-0.00982658 -0.013795 -0.0791795
0.0075589 -0.00642507 0.00944863
0.00699199 -0.0410071 -0.00944863
0.0115273 -0.0445975 0.0213539
-0.0368497 0.0302356 -0.0270231
-0.0357158 0.0287238 -0.0525344
-0.0313695 -0.00491329 -0.0253223
-0.0332592 0.0230547 -0.0020787
0.0272121 0.00566918 0.0124722
0.0281569 -0.020976 -0.0119053
-0.00226767 -0.0183303 -0.0300466
0.00718096 0.0258892 0.0954312
-0.0158737 0.112061 -0.00566918
0.0075589 -0.0164406 0.0496998
-0.0130391 -0.0113384 0.00075589
-0.0120942 0.0289128 0.0321253
0.00434637 0.00340151 0.00888171
-0.00283459 0.0360938 0.0173855
-0.00510226 0.0474321 0.020598
0 0.0257003 0.0153068
0.00321253 -0.0113384 0.00226767
Vibration 11
-0.00472431 0.0117163 0.0117163
-0.00434637 0.0134171 0.0196532
-0.00377945 0.0119053 0.00453534
-0.00548021 0.013795 -0.0183303
-0.00699199 0.013606 -0.0147399
-0.00491329 0.0109604 -0.000566918
-0.013795 0.00907068 -0.0164406
-0.00510226 0.0096376 0.00907068
-0.00510226 0.00812582 0.020787
-0.00226767 0.0107714 0.0115273
0.00075589 0.0162516 0.0075589
0.00283459 0.0156847 0.00113384
0.00302356 0.00944863 -0.000566918
0.00075589 0.00377945 0.00359048
-0.00188973 0.00510226 0.0096376
0.00529123 0.00982658 -0.00793685
-0.00377945 0.0041574 0.00831479
0.00188973 0.0111494 -0.000377945
0.0020787 0.0111494 -0.00869274
-0.00359048 0.00359048 -0.00774788
-0.00925966 -0.0105825 0.0062361
-0.00925966 -0.0096376 0.013795
-0.00359048 0.0111494 -0.0234326
0.0100155 -0.000566918 -0.00736993
-0.0309915 0.0143619 -0.0156847
-0.0196532 0.00869274 -0.00718096
-0.00944863 -0.00585815 -0.0141729
-0.0202201 0.0260782 -0.0166296
0.0117163 -0.0404401 0.0546131
0.0130391 -0.0583925 -0.0257003
0.0236216 -0.0727545 -0.0394953
0.0102045 -0.0313695 -0.0393063
-0.0122832 0.0200311 -0.0281569
0.131336 -0.0257003 0.136249
-0.02759 0.00188973 0.0147399
-0.0300466 -0.0156847 -0.0506447
-0.00434637 0.0132281 0.0355268
-0.0143619 0.00434637 -0.0198421
0.00113384 0.0211649 0.00944863
0.00434637 0.0198421 -0.0020787
0.00075589 -0.00151178 0.00188973
-0.00396842 0.00113384 0.0122832
0.00699199 0.0183303 -0.0020787
0.00680301 0.0194642 -0.0175745
-0.013606 -0.0198421 0.00925966
-0.013795 -0.0173855 0.0221098
-0.0151178 -0.0105825 -0.048188
-0.000944863 0.00736993 0.00226767
0.00453534 0.0427078 -0.0383614
0.0126612 0.000944863 -0.0130391
0.00699199 -0.00396842 0
0.013606 -0.00566918 -0.00944863
0.0238105 -0.0901399 -0.0241885
0.0421409 -0.117541 -0.0498888
0.0179524 -0.041574 -0.0489439
-0.0219208 0.0470542 -0.0300466
-0.0583925 -0.00566918 -0.00453534
Vibration 12
-0.0179524 0.00548021 -0.0103935
-0.0181414 0.000188973 -0.0143619
-0.0147399 -0.00245664 -0.0103935
-0.00982658 -0.000566918 -0.0062361
-0.00925966 0.00472431 -0.00661404
-0.0145509 0.00736993 -0.00925966
0.000188973 0.00888171 -0.00132281
-0.0143619 0.00888171 -0.0096376
-0.0145509 0.00793685 -0.0117163
-0.00982658 -0.000188973 -0.00283459
-0.0251334 0.0120942 -0.0168186
-0.000188973 -0.00264562 -0.00151178
0.0370386 -0.0268341 0.0253223
0.055369 -0.0400622 0.0406291
0.0313695 -0.0255113 0.0264562
0.062361 -0.0421409 0.0419519
-0.0153068 -0.00548021 -0.0062361
-0.0202201 -0.00359048 -0.00434637
-0.020598 0.000566918 -0.00113384
-0.0170075 0.00226767 0.000377945
-0.0122832 -0.00264562 0.00075589
-0.0120942 -0.00661404 -0.00264562
-0.0171965 0.0105825 0.00170075
-0.0642507 0.0340151 -0.0627389
0.0128501 0.00075589 0.00264562
0.0103935 0.00264562 -0.000377945
0.00869274 0 0.000566918
0.0102045 -0.00113384 0.00321253
0.0158737 0.00718096 0.000188973
0.00548021 0.00453534 0.00151178
0.00302356 0.00907068 0.00491329
0.0041574 0.00831479 0.00736993
0.00793685 0.00283459 0.00642507
0.020598 -0.000377945 0.00831479
0.0179524 0.00982658 0.000944863
0.0158737 0.00377945 0.00642507
-0.0215429 -0.00188973 -0.0183303
0.00113384 0.0168186 0.000188973
-0.0570697 0.0332592 -0.0396842
-0.0115273 0.00566918 -0.0111494
0.0907068 -0.0638727 0.0655735
0.0453534 -0.0349599 0.0374166
-0.0238105 -0.00491329 -0.00604712
-0.0238105 0.00264562 -0.000566918
-0.00869274 -0.00283459 0.00359048
-0.00907068 -0.00982658 -0.00226767
-0.0202201 0.0102045 -0.000188973
-0.0115273 0.0122832 0.00529123
-0.0200311 0.0158737 0.000944863
-0.0867384 0.0508336 -0.0865495
-0.0171965 0.089384 -0.156658
-0.177067 0.0151178 -0.0179524
0.00453534 0.00566918 0
-0.000188973 0.0134171 0.00585815
0.0020787 0.0120942 0.0100155
0.00869274 0.00264562 0.00812582
0.0238105 0.0100155 0.00340151
Vibration 13
-0.00718096 -0.00491329 0.0260782
-0.00699199 -0.00188973 0.0222988
-0.00925966 -0.000377945 -0.0102045
-0.00907068 -0.00170075 -0.0289128
-0.00793685 -0.00283459 -0.0192752
-0.00812582 -0.00377945 0.0020787
0.00226767 0.00321253 -0.0257003
-0.00831479 -0.00718096 -0.00283459
-0.00850377 -0.0141729 -0.0096376
-0.00396842 -0.00793685 0.034393
0.00472431 -0.00226767 0.0311805
0.00170075 0.00113384 0.013795
-0.0102045 -0.00434637 0.00113384
-0.0113384 -0.0158737 0.0100155
-0.00925966 -0.0166296 0.0258892
-0.0217318 0.00585815 -0.0287238
-0.0096376 0.0062361 -0.0166296
-0.0154958 0.00850377 -0.0143619
-0.0158737 0.00699199 -0.00642507
-0.0117163 0.00340151 -0.000944863
-0.00661404 0.0117163 -0.0102045
-0.00661404 0.0124722 -0.0179524
-0.0117163 -0.0120942 0.0190862
0.00925966 -0.0319364 -0.0120942
0.0232436 -0.00869274 -0.00359048
0.0194642 -0.0149288 -0.00907068
0.0185193 -0.0326923 -0.0103935
0.0130391 0.00264562 0.00396842
0.0168186 0.0258892 -0.000944863
0.0171965 -0.0498888 -0.0149288
0.00434637 -0.00585815 0.000566918
-0.00661404 0.0532903 0.0202201
-0.00170075 0.0544241 0.020976
0.0130391 0.0300466 -0.00434637
0.0349599 -0.00113384 0.00642507
0.0166296 0.00699199 0.0113384
-0.00453534 -0.000188973 0.041385
0.00377945 0.0143619 -0.0243775
0.0134171 0.00113384 0.0404401
0.00699199 0.00774788 0.00907068
-0.0166296 -0.0222988 0.00302356
-0.0143619 -0.0236216 0.0304246
-0.0190862 0.00925966 -0.0175745
-0.0194642 0.00604712 -0.00340151
-0.00245664 0.0151178 -0.0096376
-0.00321253 0.0160627 -0.0224877
0.00661404 -0.0107714 0.0294797
-0.0198421 -0.0154958 0.0183303
-0.0211649 -0.0234326 0.027401
0.00434637 -0.020787 -0.0355268
0.00377945 -0.0381725 0.0366607
0.0404401 -0.062172 -0.0285349
0.0238105 -0.0891951 -0.0281569
0.00170075 -0.013606 -0.00170075
-0.0190862 0.0982658 0.034393
-0.0100155 0.0956201 0.034771
0.0534792 0.0115273 0.0255113
Vibration 14
-0.00340151 -0.0075589 0.0111494
-0.00396842 -0.00377945 -0.00396842
-0.00925966 0.000188973 -0.0105825
-0.00812582 -0.00188973 0.00113384
-0.00585815 -0.00566918 0.0122832
-0.00510226 -0.00718096 0.0113384
-0.00359048 -0.00604712 0.0268341
-0.00548021 -0.0198421 -0.00132281
-0.00661404 -0.041574 -0.0192752
-0.000377945 -0.0107714 0.0162516
0.00604712 -0.0120942 0.0187083
0.00264562 -0.0096376 0.0103935
-0.00869274 -0.00812582 0.000377945
-0.00850377 -0.0120942 0.00359048
-0.00510226 -0.013606 0.0109604
-0.0219208 0.000944863 -0.0181414
-0.00925966 0.00718096 -0.0188973
-0.0158737 0.0164406 -0.020976
-0.0166296 0.0183303 -0.0122832
-0.0105825 0.00642507 0.00075589
-0.00377945 0.00434637 -0.00226767
-0.00396842 0.00510226 -0.0126612
-0.0105825 -0.00736993 0.0238105
0.0020787 -0.0215429 -0.0020787
0.000377945 -0.00434637 -0.00548021
0.000566918 0.00396842 -0.000944863
-0.000188973 0.0258892 0.00340151
0.00869274 -0.0202201 -0.00850377
0.0325033 0.0646286 -0.0164406
-0.0041574 0.0642507 0.0134171
0.00585815 0.0260782 0.00132281
0.0215429 -0.0493218 -0.0190862
0.0222988 -0.068786 -0.0239995
0.069164 0.0449755 0.0262672
0.00529123 0.00736993 -0.034393
-0.0181414 0.0289128 0.0302356
0 -0.00113384 -0.00944863
-0.00321253 -0.00510226 0.0326923
0.013795 -0.013984 0.0253223
0.00736993 -0.00831479 0.0103935
-0.0132281 -0.0122832 -0.000944863
-0.00793685 -0.0160627 0.0124722
-0.0219208 0.0185193 -0.0266451
-0.0217318 0.0247554 -0.0134171
0.00151178 -0.000566918 0.00529123
0.00132281 0.00113384 -0.0128501
0.00850377 -0.00529123 0.0353379
-0.0170075 -0.0102045 0.0234326
-0.0226767 -0.0190862 0.0332592
-0.0062361 -0.0130391 -0.0164406
0.000566918 -0.0232436 0.0351489
0.027779 -0.0432747 -0.0153068
-0.013984 0.11584 0.0281569
0.00245664 0.0515895 0.00793685
0.0321253 -0.0907068 -0.0309915
0.0326923 -0.11773 -0.0381725
0.0419519 0.013984 -0.0153068
Vibration 15
0.0020787 -0.00226767 -0.0194642
0.00075589 0.00302356 0.000566918
-0.00264562 0.00680301 0.0298577
-0.00226767 0.00472431 0.0268341
-0.00566918 -0.00377945 0.00245664
-0.0020787 -0.00396842 -0.0109604
-0.00566918 -0.00321253 -0.00529123
-0.00245664 -0.020409 0.00396842
-0.00359048 -0.0478101 0.0262672
0.00170075 -0.0020787 -0.0283459
-0.00434637 -0.00831479 -0.0238105
-0.00585815 -0.00944863 -0.0119053
-0.00113384 -0.00226767 -0.00566918
-0.00132281 0.00888171 -0.0145509
0.00132281 0.00680301 -0.0249444
0.00396842 -0.00869274 0.0179524
-0.00302356 -0.00283459 0.0421409
0.0117163 -0.0168186 0.041196
0.0132281 -0.0222988 0.0211649
-0.00245664 -0.0115273 0.00188973
-0.0185193 -0.0170075 0.0158737
-0.0179524 -0.0124722 0.0366607
-0.00264562 0.0100155 -0.0453534
-0.00699199 0.0158737 0.0175745
0.0111494 -0.0192752 -0.0192752
0.00529123 -0.00850377 -0.0107714
0.00604712 -0.00869274 -0.0119053
0.00359048 0.00264562 -0.00736993
0.00302356 0.0723765 0.00718096
0.0109604 -0.0262672 -0.0156847
0.0096376 -0.0171965 -0.0143619