[Molden Format]
[FREQ]
-78.6
10.3
23.5
27.2
29.7
39.5
43.6
50.1
54.5
55.4
61.1
76.2
84.8
113.4
116.4
127.7
137.4
144.5
158.4
179.0
195.9
206.0
227.4
233.6
242.7
254.4
259.5
272.3
292.7
308.9
320.8
331.2
352.9
354.8
356.8
363.3
378.7
382.7
396.3
425.0
427.6
452.9
466.5
486.0
499.3
524.2
528.2
542.0
550.6
564.7
583.3
588.7
610.3
614.8
620.4
650.8
656.0
659.8
676.3
688.8
713.8
719.1
756.0
763.8
782.5
803.9
813.4
831.2
850.1
862.7
882.1
882.7
899.4
901.2
939.4
964.3
974.4
984.5
1006.5
1009.0
1009.5
1015.8
1019.6
1019.9
1034.0
1046.1
1070.6
1074.1
1080.9
1091.7
1126.2
1140.8
1173.7
1178.1
1178.5
1183.5
1191.0
1202.7
1208.3
1229.6
1242.4
1261.1
1263.4
1268.2
1271.9
1273.7
1283.2
1286.5
1294.4
1300.0
1306.6
1320.0
1324.1
1332.2
1340.1
1347.6
1349.7
1350.6
1352.8
1365.8
1383.5
1393.6
1394.9
1427.8
1501.8
1517.2
1521.5
1525.8
1529.5
1556.0
1560.4
1599.8
1601.6
1650.0
1667.7
1691.2
1698.4
1699.7
1700.8
1707.6
1710.1
1799.9
1833.0
2452.7
2651.5
2653.9
2667.5
2673.2
2738.2
2742.2
2744.1
2744.9
2746.2
2749.0
2749.7
2752.3
2754.6
2756.0
2762.3
2765.4
2766.3
2766.7
2769.5
2779.3
2783.0
       
[FR-COORD]
C -2.24707 -2.77695 -1.11721
C 0.391362 -2.77695 -1.11721
C 1.7051 -0.480746 -1.11721
N 0.491518 1.76652 -1.13176
C -2.08909 1.80488 -1.10039
C -3.53398 -0.459392 -1.0985
N -3.29209 4.10505 -1.27859
C -6.20492 -0.339206 -1.10814
N -8.39152 -0.250956 -1.11135
C -3.60919 -5.18522 -1.11947
C -3.12183 -6.95514 -3.0315
C -4.39437 -9.24019 -3.07024
C -6.1641 -9.75344 -1.15462
C -6.65807 -8.02226 0.772709
C -5.36928 -5.72965 0.768741
O -7.26373 -12.0534 -1.41257
C 4.48432 -0.475455 -0.981524
C 5.64045 -1.27141 1.2544
C 8.26056 -1.23777 1.45339
C 9.73322 -0.414984 -0.57939
C 8.56669 0.337316 -2.82609
C 5.94489 0.307458 -3.03131
C 12.541 -0.352434 -0.368308
C -9.17084 -12.7158 0.360371
C -2.78905 6.16296 -0.0801244
C -1.55411 6.6781 2.50219
C 1.04521 5.94886 3.11162
C 2.82514 5.37136 1.24571
C 1.84456 5.28897 -1.42013
C 1.76425 5.96133 5.65822
C 4.25094 5.42314 6.32208
C 6.03786 4.91537 4.45049
C 5.32336 4.89458 1.91675
O 3.72975 5.00248 -3.05663
O -2.89714 7.80306 3.97315
O -3.90323 8.22182 -1.09415
H 1.43336 -4.55141 -1.09207
H 3.12617 5.11322 -4.81238
H -1.74554 -6.5171 -4.50454
H -4.06027 -10.6324 -4.54385
H -8.0234 -8.42156 2.24877
H -5.74307 -4.35091 2.25841
H 4.48942 -1.8954 2.84517
H 9.16064 -1.84966 3.19761
H 9.70828 0.961682 -4.4178
H 5.03347 0.911415 -4.77647
H 13.1971 -0.388339 1.6006
H 13.3485 1.35002 -1.24476
H 13.3914 -1.99291 -1.3247
H -9.75779 -14.591 -0.311805
H -10.7559 -11.3886 0.273065
H -8.38925 -12.8447 2.27032
H 0.369441 6.40466 7.11425
H 4.80708 5.41425 8.30213
H 7.99108 4.5257 4.96941
H 6.70683 4.47657 0.442196
H -4.18877 9.56825 0.203712

[FR-NORM-COORD]
Vibration 1
-0.0096376 -0.0171965 0.0119053
-0.0102045 -0.0287238 0.0188973
-0.00812582 -0.0289128 0.0177634
-0.000188973 -0.0294797 0.00944863
0.00510226 -0.0221098 0.00396842
-0.0062361 -0.013606 0.0075589
0.0224877 -0.0100155 -0.0128501
-0.00529123 -0.00680301 0.00340151
-0.00510226 0.000377945 0.000377945
-0.0143619 -0.0141729 0.00642507
-0.013984 -0.0107714 0.00359048
-0.0130391 -0.0111494 0.00132281
-0.0120942 -0.0130391 0.00132281
-0.013984 -0.0153068 0.00264562
-0.0145509 -0.0149288 0.00548021
-0.0103935 -0.0141729 0.000188973
-0.00736993 -0.0166296 0.0147399
0.00132281 -0.0177634 0.00944863
0.00170075 -0.0062361 0.00359048
-0.00642507 0.00566918 0.00264562
-0.0151178 0.0124722 0.00925966
-0.0156847 0.00340151 0.0164406
-0.00566918 0.0100155 -0.00510226
-0.00982658 -0.0153068 0.000188973
0.00377945 -0.013795 -0.00548021
0.00377945 0.000188973 -0.0105825
0.0119053 0.0153068 -0.013984
0.0300466 0.0820141 -0.0173855
0.0576366 0.174233 -0.027401
-0.00699199 -0.0462983 -0.0096376
-0.00925966 -0.0561249 -0.00510226
0.00245664 -0.0168186 -0.00302356
0.0213539 0.0502667 -0.0100155
0.0442196 0.10677 -0.00925966
0.00434637 -0.00680301 -0.00510226
-0.00075589 -0.013984 -0.00869274
-0.0156847 -0.0309915 0.0221098
0.0563138 0.0646286 -0.0194642
-0.0141729 -0.00812582 0.00434637
-0.0128501 -0.0096376 0
-0.0141729 -0.0170075 0.00170075
-0.0149288 -0.0160627 0.0062361
0.00736993 -0.0289128 0.00944863
0.00831479 -0.00812582 -0.000566918
-0.0215429 0.0232436 0.00925966
-0.0238105 0.0100155 0.0234326
-0.00075589 0.0158737 -0.00680301
-0.00944863 0.00793685 -0.0119053
-0.00680301 0.00793685 -0.00264562
-0.00907068 -0.0154958 0.000188973
-0.0103935 -0.0160627 0.000566918
-0.0096376 -0.0151178 0
-0.0181414 -0.0873053 -0.00774788
-0.0230547 -0.0986437 -0.000944863
-0.00283459 -0.0372276 0.00132281
0.0319364 0.0788016 -0.00812582
-0.0264562 -0.0255113 -0.00377945
Vibration 2
-0.0075589 -0.00548021 0.00434637
-0.0075589 -0.00472431 0.00944863
-0.00850377 -0.00434637 0.0134171
-0.00925966 -0.00491329 0.0128501
-0.00925966 -0.00566918 0.0115273
-0.00869274 -0.00604712 0.0062361
-0.00907068 -0.00491329 0.0171965
-0.00869274 -0.00699199 0.00283459
-0.00869274 -0.00793685 -0.000188973
-0.00680301 -0.00604712 -0.00302356
-0.00170075 -0.0020787 -0.00548021
-0.000944863 -0.00245664 -0.0130391
-0.00529123 -0.00680301 -0.0183303
-0.0102045 -0.0109604 -0.0158737
-0.0109604 -0.0105825 -0.00812582
-0.00396842 -0.00661404 -0.0255113
-0.00869274 -0.00188973 0.0200311
-0.0141729 0.00888171 0.0266451
-0.0145509 0.0117163 0.0334482
-0.0100155 0.0041574 0.0338261
-0.00453534 -0.0062361 0.02759
-0.00396842 -0.00925966 0.020787
-0.0105825 0.0075589 0.0408181
-0.00850377 -0.0103935 -0.0319364
0.00170075 -0.00642507 0.0160627
0.013606 -0.0117163 0.0113384
0.0249444 0.00982658 -0.0105825
0.0115273 0.013795 -0.0245664
-0.0119053 -0.00132281 -0.0149288
0.048377 0.0239995 -0.0171965
0.0582036 0.0432747 -0.0379835
0.0442196 0.0472432 -0.0523454
0.020787 0.0323143 -0.0457314
-0.0270231 -0.0111494 -0.0304246
0.0128501 -0.0328812 0.0268341
0.00170075 -0.00321253 0.0226767
-0.00699199 -0.00434637 0.00982658
-0.0430858 -0.0228657 -0.0257003
0.00151178 0.00132281 -0.00132281
0.00302356 0.00075589 -0.0151178
-0.0134171 -0.0143619 -0.0198421
-0.0147399 -0.013795 -0.0062361
-0.0177634 0.0149288 0.0264562
-0.0188973 0.0202201 0.0385504
-0.000944863 -0.0120942 0.027779
0.000188973 -0.0168186 0.0158737
-0.0154958 0.0115273 0.0425188
-0.0102045 0.00699199 0.0398732
-0.00642507 0.00680301 0.0459203
-0.00680301 -0.00907068 -0.0374166
-0.00831479 -0.0103935 -0.0332592
-0.013606 -0.0143619 -0.0302356
0.0587705 0.0198421 -0.00585815
0.0765339 0.0548021 -0.0430858
0.0514005 0.0614161 -0.068975
0.0096376 0.034393 -0.0566918
0.00793685 -0.00453534 0.0251334
Vibration 3
0.00321253 -0.00869274 0.0260782
0.00302356 -0.00831479 0.0166296
0.0020787 -0.00774788 0.0156847
0.00188973 -0.00793685 0.0170075
0.00188973 -0.00850377 0.0262672
0.00264562 -0.00925966 0.0394953
-0.000377945 -0.0113384 0.0149288
0.00245664 -0.0111494 0.0655735
0.00226767 -0.0132281 0.0905179
0.00321253 -0.00888171 0.0122832
-0.013984 0.0160627 -0.0153068
-0.0179524 0.0187083 -0.0366607
-0.00396842 -0.00434637 -0.0298577
0.0153068 -0.0304246 -0.00132281
0.0185193 -0.0321253 0.0196532
-0.0113384 0.00188973 -0.0542351
0.00245664 -0.00736993 0.00888171
0.00793685 0.000944863 0.00888171
0.00869274 -0.000566918 0.00132281
0.00359048 -0.0103935 -0.00642507
-0.0020787 -0.0183303 -0.00604712
-0.00264562 -0.0168186 0.00151178
0.00434637 -0.0128501 -0.0151178
-0.00170075 -0.0177634 -0.0512116
-0.00264562 0.00321253 -0.0100155
0.00434637 0.041196 -0.0211649
-0.00226767 0.0279679 -0.00907068
-0.000944863 0.00812582 -0.00170075
0.00377945 -0.00188973 -0.00302356
-0.00888171 0.0383614 -0.00736993
-0.013606 0.0272121 0.00170075
-0.0120942 0.00604712 0.00888171
-0.00566918 -0.00321253 0.00718096
0.00585815 -0.0117163 0.00188973
0.0164406 0.0820141 -0.041196
-0.0122832 -0.0124722 -0.0319364
0.00340151 -0.00812582 0.00869274
0.00944863 -0.0219208 0
-0.0249444 0.0340151 -0.0200311
-0.0321253 0.0383614 -0.0583925
0.0272121 -0.0489439 0.00453534
0.0325033 -0.0515895 0.0410071
0.0119053 0.00850377 0.0145509
0.0130391 0.00585815 0.00132281
-0.00604712 -0.0257003 -0.0117163
-0.00718096 -0.0232436 0.00170075
0.0105825 -0.0113384 -0.0171965
0.00302356 -0.0145509 -0.0196532
0 -0.0147399 -0.0158737
-0.013606 -0.00510226 -0.075778
0.00283459 -0.0102045 -0.0196532
0.0113384 -0.0498888 -0.0587705
-0.0096376 0.055369 -0.013606
-0.0185193 0.0351489 0.00302356
-0.0156847 -0.00283459 0.0160627
-0.0041574 -0.0190862 0.0128501
-0.0113384 0.00302356 -0.0474321
Vibration 4
-0.00982658 0.0113384 -0.0190862
-0.0102045 0.00812582 -0.0238105
-0.0075589 0.00661404 -0.0145509
-0.00529123 0.00793685 -0.00982658
-0.00529123 0.0105825 -0.00831479
-0.00774788 0.0120942 -0.00907068
-0.00264562 0.0122832 -0.00396842
-0.00774788 0.0126612 0.00321253
-0.00774788 0.0122832 0.0147399
-0.00982658 0.0111494 -0.0188973
-0.0377945 0.0268341 -0.0402512
-0.0283459 0.0213539 -0.0317474
0.0111494 0.000188973 -0.000944863
0.0351489 -0.0126612 0.0166296
0.0236216 -0.00604712 0.00699199
0.0219208 -0.00604712 0.00812582
-0.00812582 0.000566918 -0.00340151
-0.0221098 -0.0115273 -0.000188973
-0.0232436 -0.0213539 0.0134171
-0.0100155 -0.0190862 0.0238105
0.00396842 -0.00604712 0.020976
0.00472431 0.00396842 0.00736993
-0.0107714 -0.0311805 0.0383614
0.0733214 -0.0362827 0.0519675
0.00075589 0.0100155 -0.00132281
0.00340151 0.00491329 -0.00151178
0.0020787 -0.00170075 -0.00359048
0.00075589 0 -0.00529123
-0.000566918 0.0062361 -0.00510226
0.00245664 -0.00944863 -0.00359048
0.00170075 -0.0154958 -0.00548021
0.000566918 -0.0130391 -0.00718096
0.000188973 -0.00529123 -0.00699199
-0.00188973 0.00585815 -0.00661404
0.00699199 0.00699199 0.000188973
0.00264562 0.0128501 0.00245664
-0.0122832 0.00661404 -0.0323143
-0.00283459 0.0096376 -0.00604712
-0.0663294 0.0427078 -0.062172
-0.0495108 0.0325033 -0.0470542
0.0625499 -0.02759 0.0377945
0.0419519 -0.0153068 0.0200311
-0.0323143 -0.013606 -0.00831479
-0.034204 -0.0309915 0.0156847
0.013984 -0.00377945 0.0291018
0.0158737 0.013984 0.00510226
-0.0215429 -0.0326923 0.0419519
0.00151178 -0.0355268 0.041385
-0.0132281 -0.0359048 0.0442196
0.0772898 -0.0391173 0.0566918
0.0566918 -0.0531013 0.0976988
0.121509 -0.0374166 0.0321253
0.00359048 -0.0107714 -0.00226767
0.00188973 -0.0219208 -0.00548021
0.000188973 -0.0175745 -0.00850377
-0.00075589 -0.00359048 -0.00831479
0.00548021 0.0115273 0.00453534
Vibration 5
-0.0153068 0.0113384 0.0075589
-0.0147399 0.0096376 0.013606
-0.0122832 0.00774788 0.0122832
-0.00944863 0.00907068 0.0113384
-0.00925966 0.0113384 0.0103935
-0.0124722 0.0128501 0.00566918
-0.0062361 0.0130391 0.0117163
-0.0120942 0.0181414 -0.00340151
-0.0119053 0.0234326 -0.0115273
-0.0096376 0.00831479 0.00075589
0.0379835 -0.00642507 0.0258892
0.0583925 -0.0173855 0.0249444
0.0285349 -0.013984 -0.00170075
-0.0243775 0.00283459 -0.0304246
-0.0427078 0.0134171 -0.0287238
0.0578256 -0.0285349 0.0041574
-0.0120942 0 0.00699199
-0.00907068 -0.00566918 0.00340151
-0.00812582 -0.0247554 -0.00699199
-0.0100155 -0.0381725 -0.013795
-0.013606 -0.0279679 -0.00850377
-0.0145509 -0.00869274 0.00188973
-0.00850377 -0.0644397 -0.0270231
0.0362827 -0.0317474 -0.0202201
-0.00075589 0.0149288 0.0062361
0.00491329 0.0215429 0.00245664
0.00302356 0.0141729 0.00226767
0.000566918 0.00982658 0.00132281
-0.0020787 0.0124722 0.00245664
0.00396842 0.0117163 0.00188973
0.00264562 0.00359048 0.00075589
0.000188973 -0.0020787 0
-0.00075589 0.00113384 0.000188973
-0.00529123 0.00529123 0.00075589
0.0115273 0.0336371 -0.00075589
-0.000377945 0.013795 0.00340151
-0.0162516 0.00869274 0.0179524
-0.00699199 0.00359048 0.00113384
0.0608492 -0.00944863 0.0461093
0.0975099 -0.0292908 0.0451645
-0.0502667 0.00718096 -0.0531013
-0.0823921 0.0245664 -0.0489439
-0.0075589 0.00359048 0.00831479
-0.00566918 -0.0302356 -0.0100155
-0.0153068 -0.0362827 -0.0130391
-0.0171965 -0.00151178 0.00585815
0.000188973 -0.0676522 -0.0300466
0.00377945 -0.0736993 -0.0334482
-0.0287238 -0.0742662 -0.0283459
0.0731324 -0.047999 -0.00661404
0.0202201 -0.0538572 -0.0646286
0.00491329 0.00302356 -0.00510226
0.00604712 0.0158737 0.00264562
0.00340151 0.00132281 0.000566918
-0.000944863 -0.00869274 -0.000944863
-0.00283459 -0.00302356 -0.000566918
0.00396842 0.0175745 0.000377945
Vibration 6
-0.00491329 0.00188973 -0.00396842
-0.00434637 0.00188973 -0.0166296
-0.00321253 0.000566918 -0.0179524
-0.00283459 0.00151178 -0.0147399
-0.00264562 0.00245664 -0.00113384
-0.00340151 0.00245664 0.00718096
-0.00453534 0.00170075 0.0062361
-0.00340151 0.00661404 0.0291018
-0.00321253 0.0113384 0.0498888
-0.00283459 0.000944863 -0.00113384
0.0190862 -0.0119053 0.0158737
0.0239995 -0.0145509 0.0187083
0.00491329 -0.00453534 0.00377945
-0.0175745 0.00793685 -0.0132281
-0.020787 0.0096376 -0.0151178
0.0120942 -0.00831479 0.00850377
-0.00359048 0.00075589 -0.0119053
-0.0130391 -0.00812582 -0.0096376
-0.0147399 0.00812582 0.00850377
-0.00661404 0.0332592 0.0243775
0.00377945 0.0338261 0.0192752
0.00529123 0.0166296 0.00075589
-0.00907068 0.0616051 0.047999
-0.0105825 0.00359048 -0.0113384
0.00113384 0.0041574 -0.000188973
0.0164406 0.0128501 -0.00869274
0.00812582 -0.0164406 -0.00907068
0.00302356 -0.020976 -0.0124722
-0.00453534 -0.013795 -0.0102045
0.00850377 -0.0349599 -0.00925966
0.00472431 -0.0565028 -0.0128501
0.00151178 -0.05518 -0.0162516
0.000944863 -0.0362827 -0.0162516
-0.00869274 -0.00699199 -0.0177634
0.0364717 0.0461093 -0.0156847
-0.0075589 0.000566918 0.00226767
-0.00453534 0.00151178 -0.0226767
-0.0145509 0.00359048 -0.0149288
0.0328812 -0.0194642 0.0262672
0.0421409 -0.0241885 0.0319364
-0.0323143 0.0158737 -0.0245664
-0.0374166 0.0177634 -0.0266451
-0.0196532 -0.0253223 -0.0211649
-0.0224877 0.00283459 0.0105825
0.0103935 0.0493218 0.0300466
0.0134171 0.0177634 -0.00340151
-0.0249444 0.0525344 0.0531013
-0.020598 0.0776677 0.0685971
0.0168186 0.0788016 0.041574
0.000188973 -0.00226767 -0.00434637
-0.0107714 0.00132281 -0.0425188
-0.0355268 0.0194642 0
0.0120942 -0.0319364 -0.00680301
0.00472431 -0.0735103 -0.0128501
-0.000566918 -0.069164 -0.0190862
-0.00151178 -0.034582 -0.0190862
0.00359048 0.00529123 0.000566918
Vibration 7
-0.0171965 -0.00245664 0.00264562
-0.0166296 -0.0105825 0.0126612
-0.0109604 -0.0143619 0.0154958
-0.00491329 -0.0111494 0.0173855
-0.00453534 -0.00321253 0.00850377
-0.0111494 0.00075589 -0.00170075
0.00718096 0.00226767 0.00434637
-0.0107714 0.0075589 -0.0196532
-0.0103935 0.0130391 -0.0364717
-0.0213539 -0.000377945 -0.00491329
-0.0215429 0.00453534 -0.0096376
-0.0151178 0.000944863 -0.0105825
-0.00774788 -0.00812582 -0.0062361
-0.0128501 -0.0100155 -0.00585815
-0.0202201 -0.00566918 -0.00548021
0.00434637 -0.0141729 -0.00359048
-0.0105825 -0.0120942 0.0075589
0.00188973 0.0221098 0.0126612
0.00264562 0.0444086 0.00340151
-0.0103935 0.0321253 -0.0105825
-0.0228657 -0.00907068 -0.0181414
-0.0230547 -0.0309915 -0.00888171
-0.0103935 0.0672742 -0.0194642
0.0304246 -0.0360938 0.0160627
0.0234326 0.00396842 -0.00453534
0.0153068 0.00453534 -0.00075589
0.0122832 0.000566918 0.0075589
0.013606 -0.00793685 0.0113384
0.0153068 -0.0096376 0.0111494
0.00831479 0.00529123 0.00831479
0.00642507 0.00188973 0.0132281
0.00793685 -0.00699199 0.0170075
0.0115273 -0.0120942 0.0158737
0.013795 -0.0262672 0.013606
0.0132281 0.00925966 -0.00661404
0.0472432 0.00944863 -0.0190862
-0.0219208 -0.0134171 0.0156847
0.0156847 -0.0321253 0.0124722
-0.0255113 0.0105825 -0.0115273
-0.0141729 0.0041574 -0.0132281
-0.0109604 -0.0147399 -0.00548021
-0.0239995 -0.00718096 -0.00510226
0.0117163 0.0334482 0.0241885
0.0128501 0.0727545 0.00812582
-0.0323143 -0.0222988 -0.0300466
-0.0336371 -0.0608492 -0.013606
-0.00170075 0.0400622 -0.0230547
-0.0398732 0.0961871 0.00888171
0.0102045 0.0980768 -0.0538572
0.0453534 -0.0430858 0.0224877
0.0143619 -0.0544241 0.0317474
0.0510226 -0.0264562 0.00831479
0.00699199 0.0117163 0.00510226
0.00359048 0.00585815 0.013984
0.0062361 -0.00982658 0.020787
0.0126612 -0.0192752 0.0190862
0.0510226 0.0175745 -0.0268341
Vibration 8
-0.0120942 0.00642507 0.000566918
-0.0113384 0.000566918 -0.0185193
-0.00453534 -0.00359048 -0.020598
0.00151178 -0.000566918 -0.0249444
0.00132281 0.00529123 -0.0196532
-0.00548021 0.0102045 0.0151178
0.0173855 0.0122832 -0.0472432
-0.00491329 0.0247554 0.0818251
-0.00434637 0.041385 0.151178
-0.0119053 0.00642507 0.00151178
0.0102045 -0.000188973 0.0124722
0.0198421 -0.00510226 0.0105825
0.00491329 -0.00396842 -0.00264562
-0.0202201 0.00340151 -0.0158737
-0.02759 0.00774788 -0.0130391
0.0188973 -0.0107714 -0.00151178
-0.00491329 -0.00661404 -0.0168186
-0.0102045 -0.0119053 -0.0158737
-0.0109604 -0.00793685 -0.00793685
-0.00642507 0.00113384 -0.000944863
-0.00075589 0.00453534 -0.00264562
-0.000188973 0.00075589 -0.0105825
-0.00718096 0.00736993 0.00888171
0.0062361 -0.0122832 -0.0158737
0.0334482 0.00548021 -0.0400622
-0.0177634 -0.0449755 -0.00642507
-0.00925966 -0.00869274 0.000188973
-0.000377945 -0.00226767 0.00604712
0.00925966 -0.000566918 0.00264562
-0.0143619 0.0075589 0.00151178
-0.0111494 0.0313695 0.00888171
-0.00453534 0.0330702 0.0149288
0.00075589 0.0151178 0.0134171
0.0143619 0.00264562 0.00831479
-0.0648176 -0.1251 0.0107714
0.1011 0.0317474 -0.0583925
-0.0154958 -0.00188973 -0.0270231
0.0190862 0.00642507 0.00661404
0.020976 -0.00132281 0.0221098
0.0387394 -0.0103935 0.0198421
-0.0332592 0.00548021 -0.027401
-0.0457314 0.0113384 -0.020787
-0.013984 -0.0183303 -0.020976
-0.0151178 -0.0115273 -0.00699199
0.00302356 0.0105825 0.00245664
0.00396842 0.00377945 -0.0115273
-0.0141729 0.00888171 0.0111494
-0.00774788 0.00907068 0.0115273
-0.000377945 0.00907068 0.0120942
0.0245664 -0.0200311 -0.0102045
-0.00113384 -0.0226767 -0.0391173
-0.0115273 0.0041574 -0.0075589
-0.0217318 0.00075589 -0.00302356
-0.0147399 0.0468652 0.00982658
-0.00283459 0.048566 0.020787
0.00604712 0.0154958 0.0183303
0.0901399 0.0292908 -0.0597153
Vibration 9
0.000377945 0.00453534 0.00113384
0.000377945 0.00491329 0.00075589
-0.000377945 0.00510226 -0.00132281
-0.000944863 0.00472431 -0.00548021
-0.000377945 0.00434637 -0.00472431
0 0.00434637 0.000566918
-0.00113384 0.00453534 -0.00699199
-0.000188973 0.00434637 0.00718096
-0.000188973 0.00491329 0.0143619
0.00113384 0.0041574 0.00132281
0.00264562 0.00510226 0.00075589
0.00377945 0.00453534 -0.000377945
0.00321253 0.00340151 -0.00113384
0.0020787 0.00226767 -0.000566918
0.00113384 0.00283459 0.00075589
0.00396842 0.00302356 -0.00245664
-0.000377945 0.00699199 0.000377945
-0.0020787 0.0491329 0.0164406
-0.00226767 0.0493218 0.0156847
-0.00075589 0.00604712 -0.00132281
0.00075589 -0.0351489 -0.0153068
0.000188973 -0.0326923 -0.013795
-0.000566918 -0.00642507 0.0020787
0.00245664 0.00245664 -0.00453534
-0.00812582 0.000944863 0.00151178
-0.0020787 -0.00699199 -0.000377945
-0.00245664 -0.0119053 -0.00472431
0.000944863 -0.000377945 -0.00491329
0.00944863 0.00113384 -0.00925966
-0.0062361 -0.0264562 -0.00321253
-0.00661404 -0.0258892 -0.00188973
-0.0020787 -0.00907068 -0.00226767
0.00151178 0.00359048 -0.00321253
0.0160627 -0.0149288 0.000566918
0.00170075 -0.00888171 0.00491329
-0.0166296 0.00170075 0.0122832
0.00075589 0.00510226 0.00302356
0.0255113 -0.020409 -0.00264562
0.00302356 0.0062361 0.00151178
0.00472431 0.00510226 -0.00075589
0.00188973 0.00113384 -0.000944863
0.000188973 0.0020787 0.00132281
-0.00340151 0.0822031 0.0283459
-0.00226767 0.082581 0.027401
0.000944863 -0.068786 -0.0283459
0.000944863 -0.0606602 -0.0236216
-0.0160627 0.286293 0.0130391
0.0404401 -0.159493 -0.255302
-0.0268341 -0.172343 0.262483
0.00245664 0.00302356 -0.0062361
0.00283459 0.00283459 -0.00510226
0.00075589 0.00113384 -0.00396842
-0.00944863 -0.0374166 -0.00283459
-0.0103935 -0.0379835 -0.000944863
-0.00170075 -0.00604712 -0.00170075
0.00510226 0.0153068 -0.00340151
-0.0143619 -0.00359048 0.0185193
Vibration 10
-0.00302356 -0.00642507 -0.00188973
-0.00283459 -0.00718096 -0.00170075
-0.00188973 -0.0075589 0.00188973
-0.00113384 -0.00699199 0.00944863
-0.00170075 -0.0062361 0.00831479
-0.00226767 -0.00604712 -0.000188973
0.00113384 -0.00548021 0.0120942
-0.00226767 -0.00585815 -0.0102045
-0.00226767 -0.00642507 -0.0211649
-0.0041574 -0.00585815 -0.00302356
-0.00548021 -0.00661404 -0.00245664
-0.00585815 -0.00661404 -0.00113384
-0.00491329 -0.00585815 -0.000188973
-0.00434637 -0.00491329 -0.000944863
-0.00396842 -0.00491329 -0.00245664
-0.00453534 -0.00642507 0.00188973
-0.00170075 -0.00774788 -0.00321253
0.00340151 -0.0504557 -0.020598
0.00302356 -0.0427078 -0.0213539
-0.00132281 0.00925966 -0.0041574
-0.00529123 0.0476211 0.0113384
-0.00566918 0.0370386 0.0113384
-0.00188973 0.0147399 0.00340151
-0.00132281 -0.00699199 0.00510226
0.0154958 -0.000377945 -0.00132281
0.00680301 0.00907068 0.00170075
0.00566918 0.0115273 0.00888171
0.00132281 -0.00321253 0.00907068
-0.0107714 -0.00377945 0.0151178
0.0096376 0.027401 0.00718096
0.0096376 0.0247554 0.00566918
0.0041574 0.00453534 0.00604712
0.000377945 -0.00944863 0.00699199
-0.020598 0.013795 0.00170075
0.00283459 0.0147399 -0.00661404
0.0326923 0.000188973 -0.0183303
-0.00359048 -0.0075589 -0.00529123
-0.0334482 0.0211649 0.00604712
-0.00604712 -0.00736993 -0.00340151
-0.00661404 -0.00699199 -0.000944863
-0.00396842 -0.00377945 -0.000377945
-0.00359048 -0.0041574 -0.00321253
0.00699199 -0.0890061 -0.0330702
0.00774788 -0.076156 -0.0355268
-0.0102045 0.0857936 0.0228657
-0.00831479 0.0636838 0.0217318
-0.0181414 0.233759 0.0132281
0.0234326 -0.0950532 -0.184626
-0.0119053 -0.104124 0.197476
-0.000944863 -0.00774788 0.00699199
-0.00245664 -0.00831479 0.00680301
0.00170075 -0.00548021 0.00396842
0.0134171 0.041196 0.00661404
0.013795 0.0379835 0.00472431
0.00359048 0.000377945 0.00548021
-0.00377945 -0.0234326 0.00718096
0.0325033 0.0096376 -0.0285349
Vibration 11
0.00188973 0.00982658 0.0334482
0.00151178 0.0156847 0.0470542
-0.00340151 0.0185193 0.027401
-0.0102045 0.0145509 0.00642507
-0.0119053 0.00925966 0.00245664
-0.00529123 0.00566918 0.0102045
-0.0100155 0.00907068 -0.00831479
-0.00585815 -0.00642507 -0.00869274
-0.0062361 -0.0196532 -0.0270231
0.00925966 0.00566918 0.0315584
0.0041574 0.0219208 0.0151178
0.00529123 0.0217318 0.000944863
0.0128501 0.00548021 0.00377945
0.0238105 -0.013606 0.0236216
0.0213539 -0.0119053 0.0372276
0.00888171 0.0096376 -0.0160627
-0.00340151 0.0200311 0.0217318
0.00377945 0.0126612 0.0154958
0.00472431 0.00245664 0.00377945
-0.00113384 -0.000377945 -0.00170075
-0.00869274 0.0113384 0.00604712
-0.0096376 0.020976 0.0175745
0.000377945 -0.0175745 -0.0171965
-0.00472431 0.00491329 -0.0325033
0.0158737 0.0113384 -0.0185193
0.00075589 -0.00680301 -0.00661404
-0.00302356 -0.0164406 -0.00377945
-0.00642507 -0.00869274 -0.00982658
-0.0251334 -0.00680301 -0.00188973
-0.00170075 -0.0385504 -0.00453534
-0.00188973 -0.0496998 -0.0120942
-0.00340151 -0.0332592 -0.0183303
-0.00529123 -0.0117163 -0.0181414
-0.0398732 0.00359048 -0.0219208
-0.00548021 -0.0164406 -0.00585815
0.0542351 0.0230547 -0.0330702
0.00510226 0.0179524 0.0674632
-0.0587705 0.0147399 -0.0149288
-0.00226767 0.0357158 0.0134171
-0.00075589 0.034582 -0.0124722
0.0334482 -0.0292908 0.0281569
0.0279679 -0.0243775 0.0502667
0.00850377 0.013795 0.0194642
0.0103935 -0.00453534 -0.00151178
-0.013606 0.0115273 0.00245664
-0.0151178 0.027779 0.0226767
0.0115273 -0.0315584 -0.0213539
0.00510226 -0.0177634 -0.0132281
-0.0147399 -0.0175745 -0.0306136
-0.0177634 0.0179524 -0.0574477
0.00680301 0.0190862 -0.0230547
-0.0134171 -0.0245664 -0.0309915
0.000377945 -0.0478101 0
-0.000188973 -0.0704868 -0.0126612
-0.00321253 -0.0383614 -0.0234326
-0.00718096 0.000944863 -0.0234326
0.0661404 0.0332592 -0.041385
Vibration 12
-0.00113384 -0.00566918 -0.0359048
-0.00151178 0.00075589 -0.0504557
-0.00888171 0.00510226 -0.0215429
-0.0130391 0.00151178 0.00869274
-0.013984 -0.00453534 0.00793685
-0.00774788 -0.00869274 -0.0109604
-0.0096376 -0.00283459 0.0230547
-0.00812582 -0.020787 -0.0020787
-0.00888171 -0.0351489 0.00491329
0.00699199 -0.0105825 -0.0266451
-0.00302356 -0.0181414 -0.0217318
0.00302356 -0.0224877 -0.000566918
0.0171965 -0.0171965 0.013606
0.0311805 -0.0115273 0.0120942
0.0260782 -0.00925966 -0.00774788
0.0185193 -0.020598 0.0351489
-0.00925966 0.0109604 -0.0132281
-0.0200311 0.0319364 -0.000188973
-0.020598 0.0251334 0.00793685
-0.0117163 -0.0041574 0.00283459
-0.00188973 -0.0179524 -0.00699199
-0.00151178 -0.00831479 -0.0145509
-0.0117163 -0.0211649 0.00774788
-0.0461093 0.034771 -0.0132281
0.0168186 0.00245664 0.00510226
0.00869274 0.0113384 0.00793685
0.0062361 0.00869274 0.0153068
0.00472431 0.0111494 0.0128501
-0.00472431 0.0217318 0.0171965
0.00604712 0.00472431 0.0147399
0.00661404 0.0020787 0.0120942
0.00510226 0.00340151 0.0105825
0.00434637 0.0075589 0.0102045
-0.0151178 0.0162516 0.00925966
0.00831479 0.0228657 -0.00151178
0.0466762 0.00718096 -0.0170075
0.00396842 0.00377945 -0.0765339
-0.0228657 0.0103935 0.0111494
-0.0164406 -0.0211649 -0.0351489
-0.0041574 -0.0285349 0.00359048
0.0466762 -0.00982658 0.0270231
0.0376055 -0.00529123 -0.00850377
-0.027779 0.0523454 0.0020787
-0.0285349 0.0408181 0.0175745
0.00566918 -0.0372276 -0.00907068
0.00548021 -0.0164406 -0.020598
-0.0141729 -0.0425188 0.00812582
-0.0020787 -0.0171965 0.0241885
-0.0188973 -0.0168186 -0.00604712
-0.0663294 0.041196 -0.0132281
-0.0162516 0.0667073 -0.0684081
-0.101478 0.0349599 0.00944863
0.00680301 0.00340151 0.0156847
0.00774788 -0.00113384 0.0119053
0.00491329 0.000944863 0.00907068
0.00302356 0.00812582 0.00925966
0.0512116 0.020598 -0.0306136
Vibration 13
-0.0158737 0.00925966 0.0113384
-0.0158737 -0.000944863 0.013795
-0.00680301 -0.00680301 -0.00245664
0.00170075 -0.00188973 -0.0143619
0.00283459 0.00774788 -0.0120942
-0.00718096 0.0134171 -0.00245664
0.0075589 0.0115273 -0.0164406
-0.00661404 0.0247554 -0.0100155
-0.00604712 0.0364717 -0.0188973
-0.0132281 0.0075589 0.0147399
-0.0219208 0.0234326 -0.00264562
-0.00075589 0.0122832 0.000377945
0.0272121 -0.013606 0.0192752
0.0359048 -0.0294797 0.0355268
0.0151178 -0.0168186 0.0330702
0.0525344 -0.0264562 0.0236216
-0.00718096 -0.0168186 -0.00718096
-0.00642507 -0.0294797 -0.0120942
-0.00680301 -0.0211649 -0.0096376
-0.00831479 0.00075589 -0.00188973
-0.00831479 0.00113384 -0.00170075
-0.00793685 -0.00888171 -0.00491329
-0.0096376 0.0266451 0.00774788
-0.0360938 0.0113384 -0.0578256
-0.00869274 0.0041574 0.000566918
0.000377945 -0.00340151 -0.00302356
0.00302356 0.00113384 -0.00774788
0.00566918 -0.00661404 -0.00245664
0.0221098 -0.00566918 -0.0100155
0.00151178 0.013795 -0.00661404
0 0.0160627 -0.000188973
0.00113384 0.0020787 0.00491329
0.00377945 -0.00925966 0.00453534
0.0360938 -0.0160627 0.00699199
0.00132281 -0.0122832 0.00529123
-0.0287238 0.0041574 0.020409
-0.0230547 -0.00529123 0.0251334
0.0532903 -0.0141729 0.00151178
-0.0449755 0.0451645 -0.0177634
-0.00718096 0.0238105 -0.0119053
0.0608492 -0.0529123 0.0521564
0.0217318 -0.0279679 0.0445975
-0.00566918 -0.0430858 -0.0168186
-0.00604712 -0.0291018 -0.0128501
-0.00888171 0.0115273 0.0020787
-0.00812582 -0.00907068 -0.00472431
-0.0170075 0.0423299 0.0105825
-0.0215429 0.0294797 0.00264562
0.00869274 0.0294797 0.0190862
-0.0440306 0.0224877 -0.0820141
-0.00699199 0.0417629 -0.123399
-0.11773 -0.00340151 -0.0253223
0.000188973 0.0219208 -0.0102045
-0.00245664 0.0279679 0.000566918
-0.000188973 0.00113384 0.00925966
0.00529123 -0.0190862 0.00850377
-0.0326923 -0.00888171 0.0332592
Vibration 14
0.00321253 -0.00359048 -0.0190862
0.0041574 -0.0075589 0.00302356
0.00907068 -0.0102045 0.0325033
0.0100155 -0.00812582 0.0319364
0.0103935 -0.00510226 0.0096376
0.00718096 -0.00283459 -0.0062361
0.00548021 -0.00888171 -0.000188973
0.00793685 0.020409 0.00377945
0.00944863 0.0563138 0.0219208
-0.00680301 0.0020787 -0.0353379
-0.0241885 0.00245664 -0.0393063
-0.020409 -0.000944863 -0.0224877
0.00170075 -0.00264562 -0.00302356
0.00113384 0.00869274 -0.0130391
-0.00188973 0.00925966 -0.0283459
0.0304246 -0.0215429 0.0394953
0.0096376 -0.0075589 0.0370386
0.0279679 -0.00793685 0.0266451
0.0304246 -0.00321253 0.00680301
0.0147399 0.00302356 -0.00170075
-0.00396842 0.00907068 0.00982658
-0.00472431 0.00226767 0.0294797
0.0170075 0.00226767 -0.0298577
-0.0149288 0.0215429 0.0075589
-0.00226767 -0.00491329 -0.00283459
-0.00699199 -0.00226767 -0.00151178
-0.0107714 -0.0126612 0.00075589
-0.00869274 0.00529123 -0.00359048
-0.020787 -0.0190862 0.00321253
-0.0126612 -0.0338261 0.00075589
-0.00774788 -0.0196532 -0.00491329
-0.00151178 0.0219208 -0.0102045
-0.00226767 0.0309915 -0.0100155
-0.0323143 -0.0154958 -0.0115273
-0.00283459 0.0105825 -0.00793685
-0.00585815 -0.0103935 -0.00869274
0.000188973 -0.00982658 -0.00321253
-0.0495108 -0.0230547 -0.0062361
-0.0387394 0.00264562 -0.0525344
-0.0302356 -0.00340151 -0.0222988
0.00736993 0.013795 -0.00585815
0.00321253 0.0147399 -0.0319364
0.041574 -0.0134171 0.034204
0.0442196 -0.00548021 -0.000944863
-0.0177634 0.0175745 0.00321253
-0.0183303 0.00396842 0.0368497
0.0366607 0.00793685 -0.0364717
0.0096376 -0.00132281 -0.0436527
0.00604712 -0.00151178 -0.0334482
0.0120942 -0.000944863 0.0470542
-0.0179524 0.0124722 -0.075778
-0.0676522 0.0810692 0.0330702
-0.0162516 -0.0591484 0.00472431
-0.00850377 -0.0379835 -0.00491329
0.00396842 0.0436527 -0.0141729
0.000377945 0.05518 -0.013984
-0.00529123 -0.00604712 -0.0126612
Vibration 15
-0.00585815 0.00321253 0.00548021
-0.00642507 0.00661404 -0.0020787
-0.00831479 0.00774788 -0.0105825
-0.0100155 0.00661404 -0.00944863
-0.0107714 0.00359048 -0.00812582
-0.00831479 0.00245664 -0.000944863
-0.00869274 0.00510226 -0.0105825
-0.00907068 -0.0111494 -0.00075589
-0.0100155 -0.0326923 -0.00170075
-0.00113384 0.000377945 0.0126612
0.00585815 0.000188973 0.0141729
0.00604712 0.000566918 0.00888171
-0.00151178 0.000188973 0.0020787
-0.00226767 -0.00377945 0.00529123
-0.00245664 -0.00321253 0.0102045
-0.0096376 0.00585815 -0.0126612
-0.00888171 0.00661404 -0.0132281
-0.013606 -0.0145509 -0.0181414
-0.0143619 -0.020787 -0.0143619
-0.0105825 -0.000377945 -0.00340151
-0.00566918 0.0213539 0.00132281
-0.00510226 0.020409 -0.00510226
-0.0111494 -0.00491329 0.00377945
0.00377945 -0.00925966 -0.0041574
-0.000188973 -0.000188973 -0.00472431
0.00907068 -0.0128501 -0.00661404
-0.00453534 -0.0504557 0.00566918