[Molden Format]
[FREQ]
-238.7
17.8
25.8
27.4
29.8
33.7
36.6
39.2
43.6
55.9
56.2
70.3
83.3
91.1
107.0
118.2
133.2
137.5
154.0
169.3
179.0
185.6
197.6
220.5
237.5
241.0
259.1
282.0
295.7
302.0
320.0
326.8
350.2
354.9
356.7
362.5
388.2
393.9
425.0
430.1
462.0
474.4
489.7
506.7
519.9
522.8
527.0
540.7
557.6
566.0
584.6
603.8
613.0
616.8
619.1
634.0
650.8
657.7
669.7
692.0
706.9
723.8
725.2
766.0
794.6
805.5
816.2
818.2
851.4
873.4
881.0
882.7
896.8
901.5
904.8
917.3
958.1
976.0
995.0
1009.3
1010.4
1016.5
1017.5
1021.6
1030.5
1033.4
1070.3
1070.6
1077.5
1081.5
1101.5
1126.1
1158.7
1172.0
1178.3
1183.6
1184.1
1198.3
1224.8
1246.6
1252.0
1262.4
1269.7
1271.8
1280.5
1283.8
1286.5
1294.7
1301.3
1310.4
1319.6
1333.0
1340.0
1342.5
1348.2
1353.4
1355.2
1365.5
1373.6
1383.1
1393.9
1425.6
1427.6
1479.6
1496.8
1517.8
1521.7
1527.9
1544.6
1572.6
1584.8
1603.2
1631.8
1664.8
1696.4
1698.0
1698.4
1706.8
1708.2
1750.3
1790.5
1865.8
2088.6
2448.4
2651.7
2653.9
2660.8
2665.9
2673.0
2733.1
2744.0
2744.9
2745.5
2747.0
2748.7
2750.4
2758.1
2761.2
2762.1
2763.2
2765.3
2766.2
2769.7
2778.6
2779.7
       
[FR-COORD]
C -1.81206 -3.19439 -0.387583
C 0.835637 -3.19439 -0.387583
C 2.13974 -0.905179 -0.387583
N 0.905368 1.34889 -0.256814
C -1.67335 1.38063 0.0336371
C -3.11578 -0.902722 -0.196154
N -2.78224 3.6604 0.479801
C -5.77803 -0.796897 -0.177067
N -7.96482 -0.682758 -0.149666
C -3.16057 -5.60417 -0.574477
C -2.67661 -7.20345 -2.63239
C -3.93346 -9.4868 -2.85216
C -5.67976 -10.1739 -0.969807
C -6.16882 -8.61488 1.10039
C -4.8993 -6.31792 1.27632
O -6.7639 -12.4535 -1.41011
C 4.91215 -0.781024 -0.507958
C 6.22948 0.860014 1.09132
C 8.85072 0.981524 0.974154
C 10.1733 -0.528556 -0.743607
C 8.85015 -2.16563 -2.34099
C 6.22816 -2.29677 -2.22345
C 12.9798 -0.364717 -0.896108
C -8.63718 -13.2863 0.326734
C -5.34396 6.9746 4.05705
C -1.55619 5.6739 1.72815
C 0.759103 6.75331 1.38328
C 2.50426 6.09323 -0.579957
C 2.28166 4.03305 -2.1386
C 1.51027 8.80367 3.05701
C 3.64831 10.148 2.65091
C 5.27366 9.58866 0.549532
C 4.71128 7.62504 -0.998909
O 2.55548 3.07799 -4.1128
O -2.97329 6.58059 3.73467
O -6.84213 6.18885 2.16033
H 1.86592 -4.97225 -0.388717
H -4.72243 3.79495 0.420086
H -1.31789 -6.63029 -4.07576
H -3.60484 -10.7471 -4.44123
H -7.51544 -9.14854 2.55056
H -5.26837 -5.07127 2.87975
H 5.19448 2.05886 2.42112
H 9.86985 2.2654 2.21608
H 9.87306 -3.3348 -3.68667
H 5.20109 -3.55911 -3.48749
H 13.8479 0.0803134 0.937493
H 13.5582 1.13251 -2.2227
H 13.847 -2.13048 -1.5594
H -9.21241 -15.1057 -0.492841
H -10.238 -11.9765 0.372843
H -7.8263 -13.5656 2.20814
H 0.281947 9.21355 4.65723
H 4.19462 11.6846 3.9038
H 6.92755 10.7588 0.256814
H 5.92788 7.14638 -2.59233
H -8.64928 6.35288 2.3289

[FR-NORM-COORD]
Vibration 1
-0.0041574 -0.0219208 0.0020787
-0.0120942 -0.0462983 -0.013606
-0.0102045 -0.0389284 0.0495108
-0.00982658 -0.0668963 0.136816
0.00359048 -0.0459203 0.0500777
-0.0111494 -0.0185193 0.020598
0.0154958 0.00151178 -0.0340151
-0.00925966 -0.0117163 0.00661404
-0.00869274 0.00132281 -0.00170075
-0.0113384 -0.0143619 -0.00377945
-0.00907068 -0.00982658 -0.00529123
-0.00718096 -0.0105825 -0.00340151
-0.00510226 -0.00774788 -0.00113384
-0.00680301 -0.0100155 -0.000377945
-0.0075589 -0.0102045 -0.000188973
-0.00491329 -0.00850377 -0.00075589
-0.00888171 -0.0158737 0.0188973
-0.00585815 -0.00491329 0.00510226
-0.00585815 0.00283459 -0.00302356
-0.00604712 0.0020787 -0.00170075
-0.00831479 0.00245664 0
-0.00812582 -0.00510226 0.0096376
-0.00491329 0 -0.00132281
-0.0041574 -0.00566918 0.000566918
0.0105825 -0.013984 -0.00132281
0.0190862 -0.0117163 -0.0154958
0.000377945 0.00831479 -0.0232436
0.0132281 0.0738883 -0.0512116
0.075778 0.202768 -0.158926
-0.000566918 -0.00170075 0.00377945
-0.0102045 0.0119053 0.0317474
0.0196532 0.0417629 0.0359048
0.0419519 0.0727545 0.00604712
-0.0309915 -0.0120942 -0.0430858
0.013795 -0.0128501 -0.0151178
0.00604712 0.00453534 0
-0.0183303 -0.0476211 -0.0657625
0.020598 0.00359048 -0.0434637
-0.0096376 -0.00736993 -0.0041574
-0.0075589 -0.0119053 -0.00188973
-0.00585815 -0.0111494 -0.000188973
-0.0041574 -0.00907068 -0.00075589
-0.00812582 -0.00491329 0.00377945
-0.00642507 0.00604712 -0.00661404
-0.0102045 0.00453534 -0.00283459
-0.00736993 -0.00944863 0.013984
-0.0062361 -0.00170075 -0.000377945
-0.00245664 -0.00132281 -0.000566918
-0.00736993 -0.00151178 0
-0.0062361 -0.00585815 0.00302356
-0.00321253 -0.00434637 0.000377945
-0.00340151 -0.00434637 0.000377945
-0.0075589 -0.0272121 0.00699199
-0.0224877 0.00170075 0.0487549
0.0238105 0.0487549 0.0791795
0.0612271 0.0910848 0.0164406
0.00491329 -0.00793685 0.00548021
Vibration 2
-0.00075589 0.00283459 -0.013984
-0.000944863 0.00264562 -0.0162516
-0.000944863 0.00283459 -0.0158737
-0.000188973 0.00264562 -0.0128501
-0.000377945 0.00340151 -0.0170075
-0.000377945 0.00340151 -0.0181414
-0.00151178 0.00396842 -0.020976
-0.000566918 0.00377945 -0.0221098
-0.000566918 0.00377945 -0.0264562
-0.000944863 0.0020787 -0.00321253
-0.00396842 -0.0075589 0.00377945
-0.00226767 -0.0100155 0.0179524
0.00264562 -0.00245664 0.0253223
0.00472431 0.00793685 0.0179524
0.00283459 0.0102045 0.00359048
0.00510226 -0.0062361 0.0398732
-0.000944863 0.00132281 -0.0181414
0.00283459 -0.0145509 -0.00529123
0.00283459 -0.0164406 -0.00774788
-0.00132281 -0.0020787 -0.0236216
-0.00529123 0.013984 -0.0366607
-0.00510226 0.0153068 -0.0338261
-0.00132281 -0.00377945 -0.0268341
0.0119053 -0.00075589 0.0498888
-0.0247554 0.00245664 -0.034771
-0.00831479 -0.000188973 -0.00736993
-0.00321253 -0.00377945 0.0149288
0.0107714 0.00075589 0.0257003
0.0115273 0.0128501 0.00925966
-0.0111494 -0.0134171 0.0300466
-0.00075589 -0.0215429 0.0576366
0.0177634 -0.0198421 0.0716206
0.0226767 -0.00869274 0.0555579
0.0158737 0.0258892 0.00377945
-0.0230547 -0.00170075 -0.0170075
-0.0119053 0.00699199 -0.0466762
-0.000566918 0.00283459 -0.0171965
-0.00151178 0.00359048 -0.0260782
-0.0075589 -0.013606 -0.00188973
-0.0041574 -0.0177634 0.0236216
0.00793685 0.0143619 0.0230547
0.00453534 0.0181414 -0.00226767
0.00585815 -0.0253223 0.00680301
0.00585815 -0.0289128 0.00264562
-0.00831479 0.0253223 -0.0489439
-0.00850377 0.027779 -0.0434637
0.00170075 -0.00472431 -0.0281569
-0.0020787 -0.0041574 -0.02759
-0.00377945 -0.00453534 -0.0281569
0.013984 -0.00699199 0.061983
0.00888171 -0.00434637 0.0466762
0.0175745 0.0119053 0.0493218
-0.0255113 -0.013984 0.0192752
-0.00642507 -0.0296687 0.0699199
0.0272121 -0.02759 0.0946753
0.0357158 -0.00642507 0.0650066
-0.0128501 0.00982658 -0.0608492
Vibration 3
-0.00132281 -0.0075589 0.0247554
-0.00113384 -0.00774788 0.020409
-0.00170075 -0.00774788 0.0213539
-0.00132281 -0.00774788 0.0258892
-0.000944863 -0.00774788 0.0298577
-0.00113384 -0.00869274 0.034393
-0.00170075 -0.00831479 0.0272121
-0.000944863 -0.00944863 0.048377
-0.000944863 -0.0096376 0.061983
0.000188973 -0.00774788 0.0117163
-0.00226767 0.0102045 -0.00283459
0.00132281 0.0100155 -0.0188973
0.00718096 -0.00869274 -0.0200311
0.00944863 -0.0264562 -0.0062361
0.00585815 -0.0253223 0.00982658
0.0107714 -0.00718096 -0.0364717
-0.0020787 -0.00604712 0.0105825
0.00396842 -0.0103935 0.0096376
0.00321253 -0.00510226 -0.00529123
-0.0041574 0.00472431 -0.0194642
-0.0103935 0.0075589 -0.0173855
-0.00944863 0.0020787 -0.00226767
-0.00566918 0.0120942 -0.0376055
0.0175745 -0.0260782 -0.0383614
-0.0111494 0.0682191 -0.0495108
-0.00264562 0.00472431 0.00642507
-0.00132281 0.00113384 0.00283459
0.0020787 -0.0111494 0.0102045
-0.00529123 -0.0124722 0.0132281
-0.00396842 0.0117163 -0.00888171
0.00188973 0.00264562 -0.00736993
0.0107714 -0.0164406 0.00472431
0.0103935 -0.0228657 0.0128501
-0.0160627 -0.0166296 0.013984
-0.0115273 0.0272121 -0.00944863
0.00944863 0.089573 -0.0742662
-0.00113384 -0.00774788 0.0145509
-0.000944863 -0.00642507 0.0196532
-0.00661404 0.0243775 -0.00151178
-0.000566918 0.0236216 -0.0302356
0.013984 -0.0408181 -0.00736993
0.00718096 -0.0389284 0.020598
0.00944863 -0.0173855 0.0200311
0.00812582 -0.00812582 -0.0062361
-0.0160627 0.0143619 -0.02759
-0.0145509 0.00453534 -0.000566918
0.00529123 0.0156847 -0.0436527
-0.0181414 0.0126612 -0.0425188
-0.00529123 0.013795 -0.0417629
0.0190862 -0.020409 -0.0523454
0.0147399 -0.0300466 -0.0222988
0.0236216 -0.0406291 -0.0430858
-0.0102045 0.0264562 -0.0173855
0.000188973 0.0096376 -0.0151178
0.0173855 -0.0251334 0.00661404
0.0164406 -0.0366607 0.0215429
0.00888171 0.115273 -0.104313
Vibration 4
-0.00510226 0.00736993 -0.0153068
-0.00548021 0.00548021 -0.0241885
-0.00396842 0.00472431 -0.0168186
-0.00264562 0.00529123 -0.0124722
-0.0020787 0.00661404 -0.00869274
-0.00340151 0.00699199 -0.00283459
-0.00113384 0.00793685 -0.0117163
-0.00359048 0.00377945 0.0198421
-0.00340151 -0.000377945 0.0408181
-0.00680301 0.00812582 -0.0151178
-0.0521564 0.0351489 -0.0464873
-0.0498888 0.0334482 -0.0425188
0.000188973 0.00472431 -0.00642507
0.0436527 -0.0202201 0.0224877
0.0389284 -0.0171965 0.0175745
0.000188973 0.00434637 -0.00472431
-0.00340151 0.000566918 -0.00793685
-0.00680301 -0.00548021 0.00113384
-0.00548021 -0.0164406 0.0177634
-0.000944863 -0.020787 0.0251334
0.00226767 -0.0120942 0.013606
0.000944863 -0.00132281 -0.00302356
0.00113384 -0.0353379 0.0459203
0.0587705 -0.0313695 0.041385
-0.00151178 -0.0020787 -0.00170075
-0.00132281 0.00585815 -0.00793685
-0.00075589 0.00510226 -0.00566918
0.000566918 0.00510226 -0.00453534
0.00075589 0.0062361 -0.00604712
-0.000944863 0.00396842 -0.0041574
0 0.00321253 -0.00170075
0.00132281 0.00321253 -0.00075589
0.00151178 0.0041574 -0.0020787
0.00377945 0.00850377 -0.00699199
-0.00132281 0.00434637 -0.00718096
-0.00453534 -0.0075589 0.00283459
-0.00699199 0.00434637 -0.034771
-0.00151178 0.00661404 -0.00736993
-0.0888171 0.0566918 -0.0723765
-0.0854156 0.0534792 -0.0657625
0.0805023 -0.041574 0.0487549
0.0719986 -0.0351489 0.0391173
-0.0100155 -0.00264562 -0.0041574
-0.00793685 -0.0219208 0.0255113
0.00566918 -0.0143619 0.0183303
0.00359048 0.00491329 -0.0113384
-0.0100155 -0.0417629 0.0527234
0.0188973 -0.0372276 0.0515895
-0.00340151 -0.0394953 0.0508336
0.0496998 -0.0266451 0.0374166
0.0491329 -0.0451645 0.103746
0.116785 -0.0461093 0.0141729
-0.00226767 0.00396842 -0.00510226
-0.000377945 0.00226767 -0.00075589
0.00226767 0.00245664 0.00113384
0.00264562 0.00434637 -0.00132281
-0.00453534 -0.013606 0.00793685
Vibration 5
-0.0160627 0.0126612 -0.00510226
-0.0156847 0.0096376 -0.000944863
-0.0119053 0.0075589 -0.000944863
-0.00831479 0.00907068 0.0020787
-0.00831479 0.0115273 0.00264562
-0.0126612 0.0145509 -0.00510226
-0.00491329 0.0111494 0.0122832
-0.0122832 0.020598 -0.013984
-0.0120942 0.0264562 -0.0219208
-0.0115273 0.0107714 -0.00907068
0.0215429 -0.00132281 0.0075589
0.0423299 -0.0128501 0.0119053
0.0285349 -0.0126612 -0.00075589
-0.0111494 0.00283459 -0.0219208
-0.0308025 0.0143619 -0.0258892
0.0583925 -0.0287238 0.0096376
-0.0117163 -0.0020787 -0.00396842
-0.00283459 0.00245664 -0.0160627
-0.00188973 -0.0153068 -0.0147399
-0.00982658 -0.0376055 -0.00113384
-0.0188973 -0.0400622 0.00869274
-0.0196532 -0.0217318 0.00718096
-0.00831479 -0.0600933 0.00321253
0.0572587 -0.0383614 0.00377945
0.00812582 0.0187083 0.0160627
0.000566918 0.00850377 0.0111494
0.000566918 0.00680301 0.00642507
-0.00510226 0.00831479 0.00075589
-0.0096376 0.00982658 -0.000377945
0.00661404 0.00396842 0.00718096
0.00566918 0.0041574 0.00226767
-0.00132281 0.00699199 -0.00377945
-0.0062361 0.00869274 -0.00434637
-0.0149288 0.0102045 -0.00132281
0.00642507 0.00699199 0.0160627
0.00585815 0.0338261 0.0117163
-0.0181414 0.00831479 0.00188973
-0.00453534 0.0145509 0.0147399
0.0328812 -0.00226767 0.0177634
0.0702978 -0.0232436 0.0258892
-0.0255113 0.00548021 -0.034393
-0.0600933 0.0247554 -0.0408181
0.00359048 0.0187083 -0.0255113
0.00510226 -0.0122832 -0.0236216
-0.0251334 -0.0563138 0.0181414
-0.0264562 -0.0239995 0.0149288
-0.00831479 -0.0591484 0.00302356
0.00585815 -0.0701088 -0.00188973
-0.020787 -0.0695419 0.0122832
0.0920297 -0.0563138 0.0194642
0.0368497 -0.062361 -0.0241885
0.0457314 -0.00472431 0.013606
0.0120942 0.00170075 0.0119053
0.0100155 0.00226767 0.00283459
-0.00226767 0.00736993 -0.00774788
-0.0113384 0.0107714 -0.00888171
0.00661404 0.0428968 0.0107714
Vibration 6
-0.0113384 -0.00075589 -0.0132281
-0.0107714 -0.00302356 -0.0107714
-0.0096376 -0.0041574 -0.00661404
-0.00982658 -0.0041574 -0.00812582
-0.00925966 -0.0020787 -0.0062361
-0.0109604 -0.000566918 -0.0124722
-0.00245664 -0.00170075 0.00718096
-0.0107714 0.00226767 -0.0183303
-0.0105825 0.00548021 -0.0241885
-0.0113384 -0.00075589 -0.0117163
-0.0111494 -0.00377945 -0.00925966
-0.00585815 -0.00736993 -0.00226767
-0.00075589 -0.00793685 0.00226767
-0.00359048 -0.00321253 -0.0020787
-0.00925966 0.000377945 -0.00925966
0.00736993 -0.013606 0.0111494
-0.0096376 0.00453534 0.00434637
-0.0255113 0.00793685 0.0145509
-0.0262672 0.02759 0.0222988
-0.0111494 0.0436527 0.0200311
0.00510226 0.0376055 0.0126612
0.00566918 0.0177634 0.00510226
-0.0122832 0.0684081 0.0258892
0.0198421 -0.0196532 0.0217318
0.0264562 0.0145509 0.0132281
0.0111494 -0.00718096 0.00302356
0.0151178 -0.0166296 -0.00283459
0.00377945 -0.0160627 -0.0130391
-0.0170075 -0.00869274 -0.0200311
0.0340151 -0.0291018 0.00377945
0.0436527 -0.0438416 0.00548021
0.0340151 -0.0447865 -0.00170075
0.013795 -0.0309915 -0.0119053
-0.041196 -0.00548021 -0.0245664
0.0230547 -0.00472431 0.0103935
0.0194642 0.0355268 0.0102045
-0.0120942 -0.00377945 -0.0111494
-0.00170075 0.00491329 0.0124722
-0.0143619 -0.00377945 -0.0122832
-0.00510226 -0.0102045 0
-0.00151178 -0.00264562 0.000377945
-0.0111494 0.00377945 -0.0122832
-0.0379835 -0.00340151 0.0153068
-0.0391173 0.0309915 0.0292908
0.0173855 0.0487549 0.0122832
0.0181414 0.0134171 -0.000566918
-0.0192752 0.0602823 0.0311805
-0.0228657 0.0846597 0.0396842
0.00396842 0.0816362 0.0124722
0.0285349 -0.0262672 0.0304246
0.0115273 -0.0298577 0.0232436
0.0291018 -0.0075589 0.0194642
0.0410071 -0.0268341 0.00850377
0.0585815 -0.0546131 0.0120942
0.0425188 -0.0563138 0.00075589
0.00472431 -0.0309915 -0.0187083
0.020976 0.0498888 0.0119053
Vibration 7
0.00548021 -0.000377945 0.00510226
0.00510226 0.00188973 0.0107714
0.0041574 0.00321253 0.00302356
0.000188973 0.00170075 -0.0041574
0 -0.000377945 -0.00321253
0.00226767 -0.00170075 -0.0020787
-0.0020787 -0.00151178 -0.00302356
0.00226767 -0.00548021 -0.00793685
0.00188973 -0.0096376 -0.0134171
0.00585815 -0.00075589 0.00529123
-0.00888171 0.00888171 -0.00529123
-0.013984 0.0119053 -0.00869274
-0.00340151 0.00566918 -0.00113384
0.013606 -0.00472431 0.0107714
0.0177634 -0.00736993 0.013795
-0.0117163 0.0107714 -0.00680301
0.00377945 0.00453534 0.00075589
0.00264562 0.069164 -0.0640617
0.0020787 0.0714316 -0.0710537
0.00491329 0.00529123 -0.0107714
0.00774788 -0.062361 0.0566918
0.00793685 -0.0614161 0.0616051
0.00434637 0.00736993 -0.0175745
-0.00472431 0.00699199 -0.000944863
-0.00925966 -0.000188973 -0.00907068
-0.00434637 -0.00245664 0.00075589
-0.00170075 -0.00585815 0.0075589
-0.00170075 -0.00283459 0.00661404
-0.0105825 0.00377945 -0.0020787
0.00188973 -0.0145509 0.0162516
0.00850377 -0.0217318 0.0260782
0.0096376 -0.0188973 0.0262672
0.00359048 -0.00907068 0.0156847
-0.020976 0.0128501 -0.00793685
-0.00850377 -0.00245664 -0.00226767
-0.00434637 0.0020787 -0.013984
0.00529123 0.0020787 0.020409
-0.0020787 -0.00245664 -0.00510226
-0.0171965 0.013984 -0.0109604
-0.0264562 0.0194642 -0.0171965
0.0228657 -0.0103935 0.0171965
0.0300466 -0.0143619 0.0219208
0.00151178 0.117919 -0.107714
-0.000188973 0.123588 -0.122832
0.0096376 -0.11584 0.104502
0.0113384 -0.113762 0.111116
0.00529123 0.0294797 -0.0230547
0.000188973 -0.0062361 -0.034771
0.00736993 0.00188973 0.00113384
-0.0162516 0.0141729 -0.00888171
0.000377945 0.0126612 0.0166296
0.00548021 -0.0075589 -0.0075589
0 -0.0158737 0.0151178
0.0122832 -0.0292908 0.0336371
0.0147399 -0.0241885 0.034204
0.00321253 -0.00529123 0.0141729
-0.00453534 0.0041574 -0.0194642
Vibration 8
0.00888171 -0.0100155 -0.0153068
0.00831479 -0.00888171 -0.00869274
0.00718096 -0.0075589 -0.000566918
0.00604712 -0.00869274 0.00774788
0.00491329 -0.0122832 0.00264562
0.00661404 -0.0109604 -0.0190862
0.00302356 -0.0192752 0.0266451
0.00661404 -0.0113384 -0.0474321
0.0062361 -0.0115273 -0.075778
0.00529123 -0.00850377 -0.0111494
-0.0194642 -0.00566918 -0.0185193
-0.0292908 -0.00151178 -0.0100155
-0.0122832 0.000377945 0.00642507
0.013984 -0.00245664 0.0147399
0.0221098 -0.00642507 0.00548021
-0.0253223 0.00510226 0.0130391
0.00718096 -0.00604712 0.000188973
0.00642507 -0.00604712 0.00075589
0.00642507 -0.0041574 0.000188973
0.00718096 -0.00245664 -0.00075589
0.00793685 -0.00264562 -0.00113384
0.00793685 -0.00434637 -0.00075589
0.00699199 -0.000377945 -0.00170075
-0.0075589 0.00699199 0.0330702
0.013984 0.00453534 0.0164406
0.00472431 -0.0238105 0.0321253
-0.00377945 -0.0111494 0.0219208
-0.0141729 0.00548021 0.00680301
0.00377945 -0.00113384 0.013984
-0.00585815 -0.0107714 0.0226767
-0.0306136 0.0202201 -0.00340151
-0.0529123 0.0487549 -0.0285349
-0.0423299 0.0398732 -0.020976
0.0196532 -0.00377945 0.0171965
0.0113384 -0.048566 0.0489439
0.0328812 0.0916517 -0.0340151
0.00925966 -0.00831479 -0.0105825
0.00472431 -0.0119053 0.0164406
-0.0319364 -0.00718096 -0.0306136
-0.0495108 0.000566918 -0.0158737
0.02759 -0.00151178 0.027779
0.0417629 -0.0075589 0.0107714
0.00604712 -0.0075589 0.00170075
0.00585815 -0.00377945 0.000377945
0.00831479 -0.00151178 -0.00188973
0.00869274 -0.00434637 -0.00132281
0.00718096 0.00151178 -0.00226767
0.00529123 -0.00075589 -0.00283459
0.00812582 0 -0.00075589
-0.0234326 0.0111494 0.0353379
-0.00264562 0.0122832 0.0555579
0.013795 -0.000566918 0.0228657
0.0120942 -0.0360938 0.0428968
-0.0330702 0.0230547 -0.00585815
-0.0763449 0.075967 -0.0517785
-0.0557469 0.0585815 -0.0368497
0.0338261 0.135493 -0.0655735
Vibration 9
0.0062361 -0.00283459 -0.013606
0.0062361 0.00491329 -0.0360938
0.00151178 0.00774788 -0.0370386
-0.00359048 0.00472431 -0.0325033
-0.00132281 -0.00170075 -0.0151178
0.00283459 -0.00548021 0.00321253
-0.00283459 -0.00151178 -0.013984
0.00283459 -0.0105825 0.0474321
0.00302356 -0.0128501 0.0891951
0.0105825 -0.00566918 -0.00302356
0.0241885 -0.0211649 0.0119053
0.0221098 -0.020598 0.0173855
0.00434637 -0.0041574 0.00680301
-0.00566918 0.00850377 -0.00510226
-0.00170075 0.00642507 -0.00944863
-0.000944863 -0.00245664 0.0111494
0.00170075 0.0111494 -0.0292908
-0.00793685 0.0124722 -0.0222988
-0.00661404 0.00359048 0.00226767
0.00510226 -0.00661404 0.0200311
0.0143619 -0.00226767 0.00812582
0.0126612 0.00680301 -0.0168186
0.00793685 -0.0226767 0.0542351
-0.0364717 0.0266451 -0.0132281
0.00245664 -0.00718096 -0.000377945
-0.00226767 -0.00982658 -0.000377945
-0.00321253 -0.0075589 0.00283459
-0.00925966 0.00642507 -0.00736993
-0.0117163 0.013795 -0.0171965
0.0020787 -0.0211649 0.0170075
-0.00132281 -0.0154958 0.0177634
-0.0117163 0.00434637 0.00453534
-0.0153068 0.0147399 -0.0075589
-0.0126612 0.0264562 -0.0238105
0.00113384 -0.0294797 0.0109604
0.00944863 0.0391173 -0.0247554
0.0109604 0.0075589 -0.0470542
-0.00226767 -0.00132281 -0.0103935
0.0357158 -0.0332592 0.0181414
0.0326923 -0.0319364 0.0285349
-0.0164406 0.0196532 -0.0107714
-0.00888171 0.0149288 -0.0173855
-0.0162516 0.0188973 -0.034582
-0.0141729 0.00340151 0.00888171
0.0232436 -0.00736993 0.0190862
0.020598 0.00907068 -0.0253223
-0.0117163 -0.0419519 0.0682191
0.0332592 -0.0162516 0.0727545
0.00510226 -0.0230547 0.0515895
-0.0417629 0.027401 -0.0113384
-0.0241885 0.0427078 -0.0455424
-0.0682191 0.0296687 0.000944863
0.00925966 -0.0368497 0.0264562
0.00340151 -0.0257003 0.0281569
-0.0158737 0.0102045 0.00453534
-0.0224877 0.0294797 -0.0175745
0.00982658 0.05518 -0.0349599
Vibration 10
0.0107714 -0.00075589 0.00359048
0.0105825 0.00510226 0.00340151
0.00434637 0.00869274 0.00075589
-0.00075589 0.00510226 0.00585815
-0.000944863 -0.00132281 0.00869274
0.00453534 -0.0041574 0.000377945
-0.00529123 -0.00699199 0.0217318
0.0041574 -0.0117163 -0.0164406
0.00359048 -0.0194642 -0.034204
0.0149288 -0.00321253 0.00548021
0.00736993 0.000566918 0.00113384
0.00321253 0.00283459 0
0.00718096 0.00188973 0.00321253
0.0192752 -0.0041574 0.0107714
0.0228657 -0.00642507 0.0119053
-0.00226767 0.00718096 -0.00132281
0.00396842 0.0120942 -0.00453534
0.00736993 -0.000944863 0.00510226
0.00888171 -0.0126612 0.0119053
0.00548021 -0.00982658 0.00831479
0.00075589 0.00907068 -0.00850377
0.00075589 0.0196532 -0.0147399
0.0075589 -0.0364717 0.0132281
-0.0164406 0.0188973 -0.0109604
-0.00359048 0.0149288 0.00113384
-0.00472431 0.00188973 0.0062361
-0.00566918 0.00264562 -0.00170075
-0.00982658 0.00132281 -0.00472431
-0.0268341 0.00831479 -0.0117163
-0.0020787 0.00472431 -0.0062361
0.00566918 -0.00604712 -0.00264562
0.00925966 -0.0171965 0.00359048
0.000944863 -0.0132281 0.00132281
-0.0582036 0.013984 -0.0185193
-0.00377945 0.0141729 0.00151178
-0.00529123 0.00151178 0.00793685
0.0149288 0.0075589 0.00377945
-0.00548021 -0.0103935 0.0236216
0.00359048 0.0020787 -0.00170075
-0.00377945 0.00604712 -0.00396842
0.0253223 -0.00718096 0.0153068
0.0313695 -0.0100155 0.0166296
0.0096376 -0.00321253 0.00869274
0.0105825 -0.0239995 0.0222988
-0.000377945 0.0149288 -0.0145509
-0.00302356 0.0330702 -0.0251334
-0.00188973 0.226578 -0.0468652
0.0234326 -0.232625 -0.200878
0.00283459 -0.138517 0.276467
-0.0319364 0.0279679 -0.0202201
-0.00377945 0.034393 -0.0103935
-0.0249444 0.00302356 -0.0096376
-0.00453534 0.0145509 -0.0105825
0.00869274 -0.00604712 -0.00377945
0.0183303 -0.0285349 0.00907068
0.0020787 -0.020409 0.00453534
-0.00510226 0.00245664 0.00831479
Vibration 11
-0.0113384 0.00075589 -0.00642507
-0.0111494 -0.00491329 -0.00718096
-0.00491329 -0.00850377 -0.00302356
-0.000188973 -0.00510226 -0.00869274
0.000188973 0.00132281 -0.0111494
-0.00510226 0.00396842 -0.00151178
0.00491329 0.00736993 -0.0243775
-0.00472431 0.0113384 0.0198421
-0.0041574 0.0190862 0.0421409
-0.0153068 0.00302356 -0.00812582
-0.0075589 -0.00151178 -0.00283459
-0.00340151 -0.00396842 -0.00113384
-0.00774788 -0.00226767 -0.00434637
-0.020409 0.00510226 -0.0128501
-0.0239995 0.00718096 -0.0145509
0.00170075 -0.0075589 0.000944863
-0.00453534 -0.0102045 0.00585815
-0.0109604 -0.00132281 0.00170075
-0.0115273 0.0132281 -0.00188973
-0.00604712 0.0173855 -0.000377945
0.00075589 0.000944863 0.00982658
0.00188973 -0.0128501 0.0126612
-0.00812582 0.034582 -0.0194642
0.0156847 -0.0185193 0.0107714
0.00604712 -0.0179524 0.00170075
0.00548021 -0.00340151 -0.00661404
0.00661404 -0.00472431 0.00170075
0.0096376 -0.00188973 0.00340151
0.0270231 -0.00869274 0.0102045
0.00453534 -0.00888171 0.00831479
-0.00340151 0.0020787 0.00453534
-0.00888171 0.0158737 -0.00377945
-0.00151178 0.0134171 -0.00321253
0.0593374 -0.013984 0.0168186
0.00585815 -0.0187083 0.000377945
0.00699199 0.00075589 -0.00680301
-0.0151178 -0.00736993 -0.00907068
0.00529123 0.0115273 -0.0257003
-0.00321253 -0.00377945 0.000188973
0.0041574 -0.00793685 0.00359048
-0.0270231 0.00869274 -0.0175745
-0.0326923 0.0113384 -0.0196532
-0.0151178 -0.00340151 0.000377945
-0.0181414 0.0232436 -0.00661404
0.00680301 0.000944863 0.0143619
0.00736993 -0.0232436 0.0188973
-0.00831479 0.298577 -0.0842818
-0.0281569 -0.142674 -0.228468
0.0096376 -0.048566 0.223177
0.0317474 -0.0281569 0.0211649
0.00264562 -0.034393 0.00888171
0.0236216 -0.00132281 0.00982658
0.00831479 -0.020787 0.0141729
-0.00529123 0.000377945 0.00736993
-0.0183303 0.027779 -0.00944863
-0.00396842 0.0224877 -0.00774788
0.00699199 0.00113384 -0.00661404
Vibration 12
0.00453534 -0.00850377 -0.0336371
0.00510226 -0.0105825 -0.0468652
0.00774788 -0.0122832 -0.0162516
0.0111494 -0.0111494 0.0175745
0.0113384 -0.0119053 0.0200311
0.00831479 -0.00888171 -0.00340151
0.00850377 -0.020787 0.0476211
0.00869274 -0.00359048 0.0062361
0.00907068 0.00340151 0.0156847
-0.00283459 -0.00434637 -0.034582
-0.00113384 -0.0224877 -0.0198421
-0.0075589 -0.020976 -0.00566918
-0.0160627 -0.00132281 -0.00642507
-0.0228657 0.0198421 -0.0238105
-0.0156847 0.0162516 -0.0377945
-0.0183303 -0.00396842 0.0130391
0.00812582 -0.00944863 -0.0113384
0.000188973 0.000566918 -0.0141729
-0.000188973 0.00869274 -0.00718096
0.0096376 0.00491329 0.00377945
0.0188973 -0.00680301 0.00812582
0.0185193 -0.0134171 0.000188973
0.0096376 0.013984 0.0115273
0.00453534 -0.00170075 0.0391173
-0.00434637 0.0200311 -0.00396842
0.00396842 -0.00264562 0.020409
-0.00340151 0.0096376 0.00510226
0.00453534 -0.00377945 0.0173855
-0.00434637 0.000566918 0.0124722
-0.0238105 0.0419519 -0.0249444
-0.0211649 0.0379835 -0.0249444
0.00604712 -0.000944863 0.00680301
0.0179524 -0.020598 0.027401
-0.0245664 0.00680301 0.00718096
-0.00283459 0.0222988 0.00472431
0.000377945 -0.0105825 0.00529123
0.00283459 -0.0117163 -0.0742662
0.0075589 -0.0238105 0.0447865
0.00604712 -0.0389284 -0.0196532
-0.00453534 -0.0351489 0.0062361
-0.0332592 0.0383614 -0.0264562
-0.0192752 0.0304246 -0.0493218
-0.00699199 0.00264562 -0.020976
-0.00793685 0.0173855 -0.00982658
0.0262672 -0.0107714 0.0171965
0.0266451 -0.0221098 0.00226767
0.00245664 0.0228657 0.0128501
0.00850377 0.0115273 0.00850377
0.0175745 0.0147399 0.0198421
0.0143619 -0.0162516 0.0650066
-0.00699199 -0.0154958 0.0372276
0.0224877 0.0272121 0.0357158
-0.0417629 0.0712427 -0.0461093
-0.0393063 0.0631168 -0.047999
0.0160627 -0.0132281 0.0128501
0.0372276 -0.0476211 0.0500777
-0.00075589 -0.0168186 0.00113384
Vibration 13
-0.0141729 0.00264562 -0.0160627
-0.0143619 -0.00132281 -0.0202201
-0.0111494 -0.00359048 -0.0120942
-0.00718096 -0.00188973 -0.00566918
-0.00680301 0.00188973 -0.00529123
-0.0107714 0.00396842 -0.0100155
-0.00132281 0.00340151 0.00113384
-0.0105825 0.00585815 -0.00699199
-0.0105825 0.00585815 -0.00491329
-0.00850377 -0.00151178 -0.0103935
-0.020976 0.00491329 -0.0183303
-0.00170075 -0.00718096 -0.00321253
0.02759 -0.0238105 0.0179524
0.041385 -0.0306136 0.0260782
0.0230547 -0.0190862 0.0120942
0.0487549 -0.0376055 0.0355268
-0.0111494 -0.0062361 -0.00604712
-0.0162516 -0.00132281 -0.00661404
-0.0166296 0.00377945 -0.00359048
-0.0119053 0.00245664 0.000944863
-0.00642507 -0.0062361 0.00529123
-0.00642507 -0.0103935 0.00151178
-0.0124722 0.0115273 0.00151178
-0.0527234 0.0283459 -0.0421409
0.0151178 0.00302356 0.0192752
0.00377945 0.0020787 -0.00113384
-0.00075589 0.0103935 -0.0075589
0.0115273 -0.000188973 0.00736993
0.0162516 0.000188973 0.0062361
-0.0173855 0.0308025 -0.0241885
-0.0120942 0.0251334 -0.0151178
0.0145509 -0.00321253 0.0134171
0.0247554 -0.0141729 0.0236216
0.0313695 -0.0020787 0.0096376
0.0120942 -0.00340151 0.0075589
0.00548021 0.0194642 0.020409
-0.0170075 -0.00302356 -0.0272121
-0.00113384 0.00604712 0.00812582
-0.0461093 0.0192752 -0.0360938
-0.0103935 -0.00302356 -0.00831479
0.0684081 -0.0466762 0.0453534
0.0340151 -0.0243775 0.0187083
-0.0200311 -0.000944863 -0.00982658
-0.020409 0.00850377 -0.00548021
-0.0020787 -0.00907068 0.0111494
-0.00226767 -0.0160627 0.00396842
-0.0145509 0.0171965 0.00113384
-0.0173855 0.0113384 -0.000566918
-0.0062361 0.0134171 0.00453534
-0.0693529 0.0396842 -0.055369
-0.0173855 0.0744552 -0.119242
-0.141729 0.0171965 -0.00548021
-0.0355268 0.0527234 -0.0434637
-0.027779 0.041385 -0.0283459
0.0247554 -0.0147399 0.0253223
0.0432747 -0.0332592 0.0432747
0.00661404 0.0241885 0.0291018
Vibration 14
-0.00359048 0.00302356 -0.0236216
-0.00321253 -0.00264562 -0.0268341
0.00170075 -0.00604712 0.00075589
0.00680301 -0.00340151 0.0236216
0.0062361 -0.000566918 0.0171965
0.00132281 0.00340151 -0.00245664
0.00434637 -0.00661404 0.0357158
0.00170075 0.0103935 0.00264562
0.0020787 0.0192752 0.00850377
-0.00566918 0.00434637 -0.0264562
-0.0153068 0.00188973 -0.0266451
-0.00548021 -0.00566918 -0.00944863
0.0130391 -0.00869274 0.00642507
0.0173855 -0.00245664 0.00283459
0.00850377 0.00321253 -0.0132281
0.0304246 -0.0222988 0.0323143
0.0020787 -0.00944863 0.00548021
0.00170075 -0.0096376 0.0062361
0.00132281 -0.00510226 0.00377945
0.0020787 -0.000944863 0.00075589
0.00340151 -0.00548021 0.0041574
0.00359048 -0.00925966 0.00642507
0.000944863 0.0102045 -0.00793685
-0.0260782 0.0243775 -0.00585815
-0.0219208 0.0447865 -0.041574
0.00283459 0.00566918 0.0151178
0.013984 -0.0154958 0.0238105
-0.0041574 -0.00170075 0.00226767
-0.00132281 -0.00377945 0.00736993
0.0408181 -0.0425188 0.0449755
0.0247554 -0.0243775 0.020787
-0.0222988 0.0230547 -0.0289128
-0.0323143 0.0304246 -0.034204
-0.00869274 -0.0109604 0.0096376
-0.0175745 0.0585815 -0.0232436
-0.013795 -0.0430858 -0.0120942
-0.00774788 -0.00510226 -0.0468652
0.00359048 -0.00774788 0.0257003
-0.0300466 0.00472431 -0.0391173
-0.0111494 -0.00888171 -0.00774788
0.0304246 -0.0041574 0.0141729
0.0145509 0.00661404 -0.0143619
0.000944863 -0.0119053 0.00793685
0.000188973 -0.00377945 0.00321253
0.0041574 -0.00472431 0.0041574
0.00491329 -0.0113384 0.00736993
0.00491329 0.013984 -0.0107714
-0.0096376 0.0124722 -0.00982658
0.00604712 0.013795 -0.0105825
-0.0270231 0.020409 0.00359048
-0.0111494 0.0447865 -0.0650066
-0.0782347 0.0394953 0.0188973
0.0748331 -0.0801244 0.0808803
0.0476211 -0.0462983 0.0374166
-0.0466762 0.0502667 -0.0585815
-0.0633058 0.0600933 -0.0665184
-0.0158737 -0.061983 -0.0194642
Vibration 15
-0.0020787 -0.00850377 0.00831479
-0.00245664 -0.00226767 -0.0096376
-0.0107714 0.00245664 -0.0192752
-0.0141729 -0.00113384 -0.00642507
-0.0113384 -0.00491329 0.0105825
-0.00642507 -0.0096376 0.0105825
-0.0107714 -0.00982658 0.0364717
-0.00736993 -0.0302356 -0.00453534
-0.00925966 -0.0634948 -0.0268341
0.00283459 -0.0128501 0.0143619
0.0105825 -0.0162516 0.0183303
0.00491329 -0.0122832 0.0102045
-0.0096376 -0.0075589 -0.00151178
-0.00869274 -0.0107714 0.00113384
-0.00321253 -0.013984 0.00850377
-0.0279679 0.00491329 -0.0211649
-0.0119053 0.0168186 -0.0334482
-0.0202201 0.0291018 -0.0387394
-0.0200311 0.027401 -0.0243775
-0.0111494 0.0102045 -0.00245664
-0.0041574 0.0166296 -0.0145509
-0.00548021 0.0200311 -0.0306136
-0.00680301 -0.0221098 0.0442196
0.00396842 -0.020976 0.000566918
0.0117163 0.0676522 -0.00453534
0.00226767 0.00548021 -0.00132281
0.00699199 -0.00472431 -0.00340151
0.0115273 0.0020787 -0.00170075