[Molden Format]
[FREQ]
-281.2
9.4
20.1
21.7
26.2
28.1
33.1
36.3
43.7
54.2
56.5
70.1
82.0
97.1
104.7
127.2
133.6
143.0
154.5
163.6
171.2
182.6
195.2
215.9
221.7
226.5
235.4
245.4
260.4
284.7
294.5
316.2
324.8
333.1
347.2
350.7
354.8
364.0
402.4
420.4
453.8
477.9
485.4
497.1
518.8
520.7
534.5
545.8
563.5
569.4
576.1
607.3
613.3
618.0
626.4
640.5
646.4
668.8
702.4
717.8
746.5
751.9
766.1
805.4
822.1
831.9
845.7
863.8
872.7
881.9
883.1
897.1
900.4
931.0
962.4
971.3
975.3
994.8
1000.4
1008.0
1009.5
1015.9
1016.3
1032.7
1034.0
1046.9
1071.4
1075.8
1079.8
1087.1
1116.2
1126.9
1156.4
1179.3
1181.6
1182.1
1188.2
1198.3
1214.8
1221.6
1227.5
1245.7
1261.9
1270.6
1272.9
1275.0
1284.0
1287.5
1292.7
1300.9
1305.8
1315.0
1328.6
1335.7
1337.5
1348.2
1353.8
1355.2
1358.2
1368.2
1387.2
1397.4
1427.6
1499.3
1506.5
1520.1
1526.1
1529.5
1551.8
1554.4
1595.3
1601.4
1610.4
1649.1
1679.8
1682.1
1698.9
1700.4
1701.0
1708.6
1710.6
1803.1
2193.1
2450.4
2649.0
2651.8
2655.0
2666.5
2674.3
2682.0
2741.0
2741.9
2745.3
2745.3
2746.4
2750.0
2752.2
2753.8
2761.7
2762.9
2764.2
2766.3
2767.4
2772.6
2779.7
       
[FR-COORD]
C -1.13535 -2.53734 -1.19223
C 1.50063 -2.53734 -1.19223
C 2.78016 -0.218263 -1.19223
N 1.55581 2.01313 -1.3075
C -1.00911 2.04809 -1.31071
C -2.43737 -0.227712 -1.19544
N -2.09646 4.45276 -1.16974
C -5.10245 -0.147588 -1.04105
N -7.27979 -0.0793685 -0.823732
C -2.49085 -4.95392 -1.15651
C -2.18037 -6.64447 -3.17285
C -3.44554 -8.93538 -3.17587
C -5.02799 -9.52649 -1.12552
C -5.35057 -7.86976 0.899699
C -4.07085 -5.57016 0.861337
O -6.13367 -11.8301 -1.3589
C 5.55201 -0.0663294 -1.00779
C 6.84308 -1.6486 0.666695
C 9.45241 -1.45282 0.908391
C 10.7909 0.31823 -0.524966
C 9.49606 1.89313 -2.20153
C 6.88427 1.70661 -2.44039
C 13.5911 0.49473 -0.277412
C -7.92287 -12.5327 0.516651
C -3.81328 5.19788 -3.06306
C -3.35918 5.60209 2.7299
C -0.927666 5.0501 3.70859
C 1.059 5.85059 2.12745
C 0.0179524 7.18134 -0.209004
C -0.440873 3.75659 5.95887
C 2.06471 3.3091 6.60686
C 4.04005 4.13491 5.04746
C 3.55325 5.41955 2.79944
O -1.72419 8.67252 0.3513
O -5.46244 5.97059 2.4145
O -4.46108 3.79325 -4.7417
H 2.54357 -4.30631 -1.18902
H -4.49641 7.15261 -2.85594
H -0.953556 -6.13575 -4.75247
H -3.24976 -10.2686 -4.72658
H -6.57776 -8.3267 2.47441
H -4.31557 -4.24414 2.41923
H 5.80562 -3.0247 1.79429
H 10.4555 -2.68568 2.21041
H 10.5288 3.26715 -3.32819
H 5.85985 2.94457 -3.73788
H 14.2204 0.274577 1.68904
H 14.3434 2.30698 -0.954501
H 14.5241 -1.00042 -1.38611
H -8.57085 -14.3823 -0.168753
H -9.49852 -11.1927 0.576366
H -7.01617 -12.7239 2.36443
H -1.97439 3.10028 7.1649
H 2.50615 2.29054 8.34087
H 5.991 3.74241 5.59246
H 5.09035 6.00668 1.55978
H 1.1892 7.37881 -1.88897

[FR-NORM-COORD]
Vibration 1
0.00359048 -0.0179524 0.00113384
0.00340151 0.0041574 -0.00264562
-0.0158737 0.0154958 0.000188973
-0.034582 0.0102045 0.0151178
-0.0389284 -0.0187083 0.0330702
-0.0117163 -0.0334482 0.0119053
-0.11584 -0.0599043 0.0850377
-0.0115273 -0.0262672 0.00491329
-0.0111494 -0.0062361 0.00075589
0.00566918 -0.0153068 0.000944863
0.00188973 -0.0103935 -0.0020787
-0.00264562 -0.0075589 -0.0020787
-0.00170075 -0.0041574 -0.00075589
-0.00170075 -0.00491329 -0.000188973
0.00245664 -0.00793685 0.000566918
-0.00245664 -0.00396842 0
-0.0120942 0.0122832 0.000566918
-0.0102045 0.00831479 -0.00245664
-0.00907068 0.00245664 -0.00283459
-0.00529123 0.00075589 -0.00132281
-0.00453534 0.00113384 -0.00113384
-0.00566918 0.00585815 -0.000377945
-0.00472431 -0.00113384 -0.000377945
-0.0020787 -0.0020787 0.000566918
-0.0417629 -0.0389284 0.0425188
0.00377945 -0.154013 -0.102612
0.00982658 -0.0236216 -0.0368497
0.0194642 0.0574477 0.0198421
0.13436 0.197665 0.0729434
-0.00151178 -0.0198421 -0.0309915
-0.00434637 -0.00113384 -0.00359048
0.00340151 -0.00359048 0.00736993
0.0143619 0.027401 0.0230547
0.101289 0.1251 -0.0582036
0.0124722 -0.0323143 -0.0279679
0.0198421 0.0100155 -0.0258892
0.0162516 0.0119053 -0.0075589
-0.0527234 -0.0447865 0.0555579
0.00170075 -0.0096376 -0.0020787
-0.00661404 -0.0075589 -0.00245664
-0.00396842 -0.00321253 -0.00170075
0.00472431 -0.0062361 -0.00075589
-0.0107714 0.00831479 -0.00283459
-0.0115273 -0.000944863 -0.0041574
-0.00321253 -0.00170075 -0.00321253
-0.00264562 0.0062361 -0.00245664
-0.00548021 -0.00188973 -0.000377945
-0.00359048 -0.00170075 -0.000188973
-0.00548021 -0.00151178 -0.000566918
-0.00321253 -0.0020787 0.0020787
-0.00151178 -0.00132281 0.000188973
-0.00170075 -0.00132281 0.000566918
-0.00850377 -0.0417629 -0.0512116
-0.0149288 0.0041574 0.00264562
0.000188973 -0.0213539 0.00566918
0.0226767 0.0389284 0.0381725
0.061794 -0.0213539 0.00075589
Vibration 2
-0.00850377 -0.00585815 -0.000566918
-0.00850377 -0.00491329 0.00377945
-0.0096376 -0.00434637 0.00888171
-0.0102045 -0.00491329 0.00831479
-0.0103935 -0.00548021 0.00491329
-0.0096376 -0.00642507 0.00113384
-0.00944863 -0.00566918 0.00472431
-0.00982658 -0.00907068 -0.000566918
-0.0100155 -0.0128501 -0.00132281
-0.00718096 -0.00680301 -0.00699199
-0.00283459 -0.00264562 -0.00982658
-0.000944863 -0.00377945 -0.0160627
-0.00340151 -0.00888171 -0.0196532
-0.00793685 -0.0130391 -0.0170075
-0.00982658 -0.0119053 -0.0107714
-0.00075589 -0.0096376 -0.0253223
-0.0102045 -0.00321253 0.0158737
-0.0145509 0.000188973 0.0224877
-0.0154958 0.00245664 0.0308025
-0.0120942 0.00113384 0.0326923
-0.0075589 -0.00264562 0.0255113
-0.00661404 -0.00491329 0.0170075
-0.0130391 0.0041574 0.0406291
-0.00396842 -0.0141729 -0.0302356
-0.0268341 -0.0126612 0.0175745
0.0236216 0.00453534 0.0151178
0.0338261 0.0156847 -0.00453534
0.0175745 0.0147399 -0.0255113
-0.00642507 0.00151178 -0.0222988
0.0576366 0.027779 -0.00264562
0.0646286 0.0406291 -0.0213539
0.048566 0.041385 -0.041385
0.0249444 0.0281569 -0.0436527
-0.00453534 0.000188973 -0.0130391
0.0200311 -0.00264562 0.0313695
-0.0408181 -0.0185193 0.0279679
-0.00774788 -0.00434637 0.00359048
-0.0258892 -0.0122832 0.0170075
-0.000944863 0.00132281 -0.00699199
0.00264562 -0.000566918 -0.0183303
-0.0100155 -0.0170075 -0.0198421
-0.0134171 -0.0149288 -0.00869274
-0.0175745 0.00132281 0.0211649
-0.0190862 0.00510226 0.0362827
-0.00453534 -0.00396842 0.0266451
-0.00321253 -0.00793685 0.0115273
-0.0145509 -0.0287238 0.0374166
-0.0171965 0.0181414 0.0733214
-0.00774788 0.0258892 0.0156847
-0.00151178 -0.0132281 -0.034771
-0.00491329 -0.0151178 -0.0308025
-0.0075589 -0.0168186 -0.0287238
0.0702978 0.02759 0.0132281
0.0831479 0.0502667 -0.020409
0.0546131 0.0519675 -0.0555579
0.0122832 0.0283459 -0.0591484
-0.0215429 -0.00264562 -0.0332592
Vibration 3
-0.00170075 0.000377945 0.0075589
-0.00113384 0.00226767 0.0126612
-0.00188973 0.00226767 0.00718096
-0.0020787 0.00188973 0.00453534
-0.0020787 0.000944863 0.00340151
-0.00188973 0.000566918 0.000566918
-0.00226767 0.00075589 0.00529123
-0.00264562 0.00264562 -0.0115273
-0.00377945 0.00491329 -0.0224877
0.00188973 -0.00113384 0.00793685
0.0659514 -0.034582 0.0453534
0.0708647 -0.0370386 0.0442196
0.00907068 -0.00661404 0.00548021
-0.0548021 0.0257003 -0.0311805
-0.0572587 0.0270231 -0.0294797
0.0200311 -0.0120942 0.00925966
-0.00132281 0.00264562 0.000944863
0.00188973 0.0126612 0.00774788
0.00283459 0.0117163 -0.00170075
0.000377945 0.000566918 -0.0179524
-0.00321253 -0.00907068 -0.0239995
-0.00434637 -0.00774788 -0.0145509
0.00132281 -0.00170075 -0.02759
-0.0417629 0.0188973 -0.0379835
-0.00264562 0.00283459 0.00661404
0.00151178 -0.00377945 0.00793685
0.00283459 -0.00283459 0.00529123
0.00075589 -0.000188973 0.00396842
-0.00264562 0.00075589 0.0062361
0.00604712 -0.00396842 0.00396842
0.00699199 -0.0020787 0.00151178
0.00491329 0.000944863 0.000377945
0.00170075 0.00170075 0.00170075
-0.00302356 -0.000944863 0.00944863
0.00075589 -0.00548021 0.0107714
-0.00302356 0.00472431 0.00510226
0 0.00302356 0.020409
-0.00264562 0.00264562 0.00888171
0.112628 -0.0582036 0.0736993
0.12132 -0.062361 0.0723765
-0.102045 0.0495108 -0.0610381
-0.106203 0.0508336 -0.0572587
0.00396842 0.0211649 0.0198421
0.00585815 0.0196532 0.00359048
-0.00548021 -0.0173855 -0.0362827
-0.00699199 -0.0149288 -0.0190862
0.00302356 0.0461093 -0.0226767
0.00604712 -0.020976 -0.0740773
-0.00472431 -0.0323143 0.00888171
-0.0185193 0.00718096 -0.0279679
-0.0440306 0.0196532 -0.112628
-0.102612 0.0504557 -0.00472431
0.00774788 -0.00604712 0.00491329
0.00944863 -0.00264562 0.000566918
0.00566918 0.00245664 -0.00132281
0.000188973 0.0041574 0.00075589
-0.00453534 0.00340151 0.00510226
Vibration 4
0.00472431 -0.00699199 0.0198421
0.00453534 -0.00585815 0.0173855
0.00377945 -0.00529123 0.0166296
0.00302356 -0.00566918 0.0181414
0.00302356 -0.00699199 0.0202201
0.0041574 -0.00718096 0.0253223
0.00113384 -0.00680301 0.00907068
0.00453534 -0.0075589 0.034582
0.00548021 -0.00680301 0.0434637
0.00491329 -0.00736993 0.00869274
0.00302356 0.00604712 -0.00302356
0.000566918 0.0075589 -0.0187083
0.000188973 -0.00472431 -0.0226767
0.00321253 -0.0190862 -0.0105825
0.00566918 -0.0198421 0.00529123
-0.00359048 -0.00132281 -0.0394953
0.00453534 -0.00642507 0.00604712
0.0100155 -0.000377945 0.0075589
0.0119053 -0.00585815 -0.00869274
0.00831479 -0.0173855 -0.0268341
0.00245664 -0.0221098 -0.0264562
0.000377945 -0.0162516 -0.00982658
0.0103935 -0.0255113 -0.0445975
-0.00736993 -0.0105825 -0.0466762
0.00321253 -0.0183303 0.00188973
-0.00831479 0.0245664 -0.00680301
-0.0117163 0.0309915 0.00585815
-0.00642507 0.0149288 0.00453534
0.00170075 -0.00264562 -0.00925966
-0.0198421 0.0517785 0.0194642
-0.0222988 0.054991 0.0306136
-0.0168186 0.0370386 0.0279679
-0.00888171 0.0168186 0.0147399
0.00302356 0.00510226 -0.0258892
-0.00718096 0.0243775 -0.0153068
0.00529123 -0.0291018 0.0102045
0.00548021 -0.00548021 0.0143619
0.00283459 -0.0171965 -0.0111494
0.00321253 0.0158737 0.000188973
-0.00132281 0.0181414 -0.0281569
0.00377945 -0.0291018 -0.0130391
0.00774788 -0.0306136 0.0147399
0.0128501 0.00850377 0.020787
0.0164406 -0.00113384 -0.00793685
-0.000944863 -0.0304246 -0.0396842
-0.00396842 -0.0200311 -0.00982658
0.0162516 0.0285349 -0.0402512
0.0179524 -0.0496998 -0.100344
-0.00226767 -0.0631168 -0.00434637
-0.0120942 -0.00359048 -0.0614161
-0.00359048 -0.00661404 -0.0376055
-0.00944863 -0.027401 -0.0472432
-0.0241885 0.0653845 0.0213539
-0.0283459 0.0714316 0.0419519
-0.0188973 0.0391173 0.0368497
-0.00472431 0.00321253 0.0134171
0.00680301 -0.0177634 -0.0075589
Vibration 5
-0.0153068 0.0103935 -0.00831479
-0.0151178 0.00661404 -0.00793685
-0.0109604 0.0041574 -0.00132281
-0.00718096 0.00642507 0.00283459
-0.00736993 0.0103935 0.00075589
-0.0113384 0.0122832 -0.00377945
-0.00264562 0.0122832 0.00264562
-0.0111494 0.0171965 -0.00340151
-0.0109604 0.0211649 -0.00283459
-0.0120942 0.00850377 -0.0105825
0.00736993 0.00264562 -0.00283459
0.0266451 -0.00793685 0.00283459
0.0257003 -0.0126612 0.000944863
0.000188973 -0.00359048 -0.0105825
-0.0187083 0.00699199 -0.0164406
0.0523454 -0.0262672 0.0107714
-0.0107714 -0.00510226 0.00075589
-0.0171965 -0.020976 -0.00925966
-0.0158737 -0.0360938 -0.0105825
-0.00831479 -0.0349599 -0.00151178
-0.00226767 -0.0171965 0.00982658
-0.00321253 -0.00245664 0.0109604
-0.00661404 -0.0517785 -0.0096376
0.0650066 -0.0419519 0.0170075
-0.00132281 0.0170075 0.00321253
-0.000566918 0.0213539 0.00188973
-0.00264562 0.0147399 0.00321253
0.000377945 0.00661404 0.00283459
0.00566918 0.00793685 0.00132281
-0.0075589 0.0160627 0.00491329
-0.00925966 0.00869274 0.0062361
-0.00604712 0 0.00566918
-0.00113384 -0.00113384 0.00396842
0.0100155 0.013606 -0.000944863
0.000944863 0.027401 0
-0.00491329 0.0194642 0.00245664
-0.0179524 0.00491329 -0.0120942
0.00302356 0.0183303 0.00434637
0.00925966 0.00548021 -0.000566918
0.0436527 -0.0134171 0.00982658
-0.0041574 -0.00510226 -0.0145509
-0.0376055 0.0130391 -0.0243775
-0.0230547 -0.0221098 -0.0158737
-0.0215429 -0.0495108 -0.0188973
0.00434637 -0.0156847 0.0177634
0.00170075 0.0105825 0.0194642
0.0134171 -0.2005 -0.0328812
-0.0153068 0.000566918 0.120565
-0.0160627 0.0326923 -0.131903
0.0933525 -0.0565028 0.0294797
0.0444086 -0.0659514 0.00925966
0.069164 -0.0156847 0.0175745
-0.0100155 0.0228657 0.00548021
-0.0130391 0.0096376 0.00774788
-0.0075589 -0.00604712 0.00661404
0.00113384 -0.00774788 0.00359048
0.00661404 0.00245664 0.00132281
Vibration 6
0.00340151 -0.00736993 0.00132281
0.00359048 -0.00680301 -0.00642507
0.0041574 -0.00699199 -0.00359048
0.0020787 -0.00718096 0.000944863
0.00264562 -0.0075589 0.00321253
0.00302356 -0.0075589 0.00680301
0.00226767 -0.00718096 -0.000188973
0.00359048 -0.00604712 0.0153068
0.00434637 -0.00359048 0.0230547
0.00283459 -0.00699199 0.00321253
0.0117163 -0.0145509 0.0109604
0.00699199 -0.0119053 0.0105825
-0.00736993 -0.00170075 0.00245664
-0.0147399 0.00472431 -0.00396842
-0.00925966 0.00151178 -0.00359048
-0.0130391 0.000944863 0.0020787
0.00377945 -0.00264562 -0.00491329
0.0168186 -0.0512116 -0.0606602
0.0162516 -0.0438416 -0.0583925
0.00340151 0.013984 0.00132281
-0.00869274 0.0625499 0.0563138
-0.00736993 0.0531013 0.0523454
0.00226767 0.0241885 0.00472431
-0.0325033 0.0153068 -0.0111494
0.0020787 -0.0113384 -0.00188973
0.000944863 0.00604712 -0.00642507
-0.000377945 0.00699199 -0.00245664
0.00170075 -0.00075589 -0.00396842
0.00472431 -0.00699199 -0.00888171
-0.00359048 0.0143619 0.00245664
-0.00453534 0.0128501 0.00529123
-0.00245664 0.00377945 0.00321253
0.000566918 -0.00283459 -0.00132281
0.00680301 -0.00226767 -0.0149288
0.00170075 0.00774788 -0.00888171
0.000377945 -0.0158737 0.00245664
0.00283459 -0.00718096 -0.013984
0.00321253 -0.0103935 -0.00718096
0.0221098 -0.0222988 0.0164406
0.013606 -0.0173855 0.0160627
-0.0247554 0.0120942 -0.0096376
-0.0149288 0.00642507 -0.00831479
0.0279679 -0.0954312 -0.104313
0.0255113 -0.08277 -0.102423
-0.0188973 0.107714 0.102045
-0.0164406 0.0891951 0.0935414
0.00718096 -0.0544241 -0.00566918
-0.0122832 0.0583925 0.0801244
0.0117163 0.0778567 -0.0599043
-0.0355268 0.0162516 -0.0109604
-0.0266451 0.0230547 -0.0287238
-0.0493218 0.0166296 -0.00283459
-0.00529123 0.020976 0.00396842
-0.00699199 0.0183303 0.00925966
-0.00340151 0.00188973 0.00510226
0.00226767 -0.0096376 -0.00264562
0.00604712 -0.013795 -0.00869274
Vibration 7
-0.00944863 0.00170075 -0.00642507
-0.00925966 -0.000944863 -0.00793685
-0.00680301 -0.00245664 -0.0041574
-0.00510226 -0.00132281 -0.000944863
-0.00491329 0.00170075 -0.00075589
-0.00736993 0.00283459 -0.00283459
-0.000377945 0.00340151 0.00113384
-0.00699199 0.00585815 -0.00075589
-0.00680301 0.00850377 0.00113384
-0.00869274 0.00132281 -0.00699199
-0.0041574 -0.000188973 -0.00510226
0.00396842 -0.00472431 -0.00170075
0.00736993 -0.00774788 0
-0.000188973 -0.00472431 -0.00359048
-0.00850377 -0.000188973 -0.00718096
0.0187083 -0.013795 0.00529123
-0.00680301 -0.00340151 -0.00302356
-0.00491329 -0.0181414 -0.0177634
-0.00585815 -0.0164406 -0.0147399
-0.00736993 0.000188973 0.00302356
-0.00831479 0.013984 0.0179524
-0.00850377 0.0117163 0.0145509
-0.00888171 0.000377945 0.0196532
0.0285349 -0.0221098 0.0115273
-0.00075589 0.0075589 0.00321253
0.00661404 0.0158737 0.00170075
0.00510226 0.00718096 0.000566918
0.00718096 -0.00321253 -0.0020787
0.0109604 -0.00170075 -0.00283459
0.00132281 0.00793685 0.00188973
0 -0.00188973 0.000377945
0.00226767 -0.0122832 -0.00226767
0.00585815 -0.0128501 -0.00340151
0.0164406 0.00510226 -0.00359048
0.00812582 0.0236216 0.00188973
-0.00566918 0.0096376 0.00340151
-0.0113384 -0.0020787 -0.0113384
0.00396842 0.00907068 0.00434637
-0.00604712 0.00170075 -0.00604712
0.00850377 -0.0062361 0.000377945
0.000566918 -0.0062361 -0.00340151
-0.013984 0.00170075 -0.00982658
-0.00340151 -0.0306136 -0.0317474
-0.00321253 -0.0264562 -0.0264562
-0.0113384 0.0272121 0.0313695
-0.00925966 0.0224877 0.0253223
-0.0568808 0.322198 0.0719986
0.0355268 -0.126234 -0.268908
-0.00774788 -0.199744 0.291585
0.0391173 -0.027779 0.0171965
0.0196532 -0.0325033 0.0130391
0.034582 -0.0120942 0.0096376
-0.000566918 0.0160627 0.00396842
-0.00302356 -0.00151178 0.00132281
0.000944863 -0.0200311 -0.00340151
0.0075589 -0.0213539 -0.00548021
0.0102045 -0.00831479 -0.0041574
Vibration 8
-0.00604712 -0.00453534 0.00302356
-0.00548021 -0.00661404 -0.0120942
-0.0041574 -0.00774788 -0.0183303
-0.00283459 -0.00718096 -0.0192752
-0.00283459 -0.00453534 -0.00302356
-0.00377945 -0.00321253 0.0154958
0.00340151 -0.00188973 -0.00472431
-0.00113384 0.00434637 0.0514005
0.00245664 0.0145509 0.0857936
-0.00548021 -0.00491329 0.00226767
0.00604712 -0.00680301 0.00529123
0.0096376 -0.00869274 0.00132281
0.000944863 -0.00907068 -0.00548021
-0.0111494 -0.00736993 -0.00888171
-0.0141729 -0.00548021 -0.00491329
0.00604712 -0.0111494 -0.00831479
-0.00453534 -0.00359048 -0.0166296
-0.0075589 0.0202201 0.00774788
-0.0102045 0.0379835 0.0243775
-0.0105825 0.0308025 0.0156847
-0.00699199 0.00188973 -0.0145509
-0.0041574 -0.0151178 -0.0306136
-0.013795 0.0557469 0.0359048
-0.00226767 -0.0122832 -0.0168186
0.00396842 0.000944863 -0.00264562
0.0102045 0.0328812 -0.00604712
0.00396842 0.00661404 -0.00585815
0.0130391 -0.0173855 -0.00661404
0.0283459 -0.0102045 -0.00944863
-0.0111494 0.000377945 -0.0062361
-0.0164406 -0.0308025 -0.00718096
-0.00699199 -0.0544241 -0.0075589
0.00793685 -0.0478101 -0.00718096
0.0394953 0.0041574 -0.0154958
0.0149288 0.055369 -0.0103935
-0.00831479 0 0.00264562
-0.00642507 -0.00699199 -0.0171965
0.0145509 0.00510226 -0.00661404
0.0124722 -0.00661404 0.0102045
0.0188973 -0.00982658 0.00359048
-0.0181414 -0.00736993 -0.0141729
-0.0234326 -0.00472431 -0.00680301
-0.00793685 0.0264562 0.0149288
-0.0126612 0.0578256 0.0451645
-0.00604712 -0.00642507 -0.0239995
-0.0020787 -0.0359048 -0.0521564
-0.0177634 -0.00680301 0.0298577
-0.034204 0.089573 0.103368
0.00869274 0.106958 -0.0141729
0.00472431 -0.0143619 -0.0177634
-0.00510226 -0.0151178 -0.0266451
-0.0115273 -0.00831479 -0.0119053
-0.0188973 0.0188973 -0.00585815
-0.0283459 -0.0368497 -0.00774788
-0.0115273 -0.0784236 -0.00850377
0.0149288 -0.0672742 -0.00793685
0.0298577 -0.0266451 -0.0102045
Vibration 9
0.00510226 0.0115273 0.00245664
0.00491329 0.0128501 -0.0149288
0.00491329 0.0132281 -0.0158737
0.00548021 0.0134171 -0.0194642
0.00548021 0.0115273 -0.00699199
0.0062361 0.0119053 0.0171965
-0.00226767 0.00869274 -0.0134171
0.00925966 0.0171965 0.0638727
0.0141729 0.0257003 0.109982
0.00718096 0.0105825 0.0041574
0.0164406 0.00850377 0.00718096
0.0185193 0.00736993 0.00472431
0.0107714 0.00869274 -0.000944863
0.00245664 0.0100155 -0.00340151
0.00113384 0.0107714 -0.000566918
0.0128501 0.00793685 -0.00321253
0.00472431 0.00491329 -0.0062361
-0.0105825 -0.00718096 -0.00510226
-0.0105825 -0.0245664 0.00472431
0.00548021 -0.0292908 0.013606
0.020787 -0.0153068 0.0151178
0.0202201 0.0020787 0.00548021
0.00604712 -0.0508336 0.0243775
-0.00113384 0.0128501 -0.0147399
-0.00510226 -0.00226767 -0.0151178
-0.0154958 -0.0268341 -0.0096376
-0.0100155 -0.0147399 -0.0153068
-0.0173855 0.0160627 -0.00907068
-0.0291018 0.0215429 -0.000566918
0.0020787 -0.0349599 -0.0298577
0.00642507 -0.0221098 -0.0366607
-0.00132281 0.0115273 -0.0285349
-0.0134171 0.0309915 -0.0149288
-0.0423299 0.00302356 0.00736993
-0.0183303 -0.0404401 -0.00529123
-0.0020787 -0.00982658 -0.0100155
0.00548021 0.0130391 -0.0243775
-0.0107714 -0.00377945 -0.020787
0.0217318 0.00793685 0.0111494
0.0257003 0.00585815 0.00699199
-0.00302356 0.0105825 -0.00736993
-0.00510226 0.0115273 -0.0020787
-0.0230547 -0.00377945 -0.0120942
-0.0226767 -0.034393 0.00472431
0.0330702 -0.0177634 0.0232436
0.0321253 0.0128501 0.0062361
-0.00888171 -0.00736993 0.034204
0.0289128 -0.075967 -0.0168186
-0.00226767 -0.0884392 0.0682191
0.00075589 0.0130391 -0.0170075
0.000566918 0.0153068 -0.0268341
-0.013795 0.0134171 -0.00831479
0.00831479 -0.0608492 -0.0359048
0.0156847 -0.0383614 -0.048566
0.00226767 0.0221098 -0.0338261
-0.0190862 0.0570697 -0.00944863
-0.0304246 0.0419519 0.000944863
Vibration 10
-0.00604712 0.0041574 0.0436527
-0.00604712 0.00396842 0.0614161
-0.00585815 0.00377945 0.041385
-0.00661404 0.0020787 0.0162516
-0.00661404 0.00283459 0.00812582
-0.00699199 0.00321253 0.0188973
-0.00529123 0.00377945 -0.00907068
-0.00793685 0.00264562 0.000377945
-0.0096376 0.00245664 -0.0164406
-0.0041574 0.00264562 0.034582
-0.00226767 0.0196532 0.0202201
0.00113384 0.0181414 0.00151178
0.00321253 -0.000944863 -0.00245664
0.00226767 -0.0187083 0.0117163
-0.00170075 -0.0156847 0.0302356
0.00680301 -0.00075589 -0.0230547
-0.00548021 0.00680301 0.0330702
0.00793685 0.00113384 0.0170075
0.0102045 -0.00132281 -0.00491329
-0.00075589 0.00264562 -0.0103935
-0.0147399 0.0128501 0.0100155
-0.0166296 0.0141729 0.0311805
0.00226767 -0.00453534 -0.0394953
0.00548021 -0.0196532 -0.0317474
0.00888171 0 -0.0215429
0.00151178 0.0179524 0.00264562
0.00302356 0.00188973 -0.0100155
0.000377945 0.0041574 -0.0122832
-0.00321253 0.0134171 -0.0041574
0.00661404 -0.0230547 -0.0251334
0.00718096 -0.0432747 -0.041196
0.00472431 -0.0359048 -0.0404401
0.00151178 -0.0109604 -0.0255113
-0.00680301 0.00661404 0.00075589
0.0020787 0.0239995 0.00661404
0.0321253 0.00359048 -0.0338261
-0.00680301 0.00359048 0.0835259
-0.00188973 -0.00377945 -0.0219208
-0.00359048 0.0349599 0.0239995
0.0020787 0.0313695 -0.00982658
0.00434637 -0.034204 0.00869274
-0.00340151 -0.0283459 0.0406291
0.0171965 -0.00283459 0.020598
0.020787 -0.00736993 -0.0188973
-0.0239995 0.0181414 0.00793685
-0.0270231 0.0198421 0.0445975
0.0222988 -0.00699199 -0.0462983
0 -0.00642507 -0.0468652
-0.0134171 -0.00661404 -0.0498888
0.00699199 -0.0134171 -0.0502667
0.00491329 -0.0211649 -0.0198421
0.0041574 -0.0372276 -0.0328812
0.00869274 -0.02759 -0.0249444
0.0096376 -0.0653845 -0.0548021
0.00529123 -0.0508336 -0.0525344
-0.000944863 -0.00680301 -0.0264562
-0.00925966 0.0170075 -0.00774788
Vibration 11
-0.0168186 -0.00585815 0.00566918
-0.0160627 -0.0149288 0.000188973
-0.00736993 -0.0202201 -0.00245664
0.000188973 -0.0151178 0.00151178
0.0020787 -0.00642507 0.00661404
-0.00718096 -0.00075589 0.0120942
0.00453534 -0.00359048 0.00548021
-0.00604712 0.0160627 0.020598
-0.00491329 0.0362827 0.0262672
-0.0243775 -0.00188973 -0.000566918
-0.0158737 -0.00264562 0.000944863
-0.0124722 -0.00434637 -0.00264562
-0.0177634 -0.00680301 -0.00718096
-0.0330702 -0.00283459 -0.0130391
-0.0364717 -0.00075589 -0.0096376
-0.00699199 -0.0119053 -0.00793685
-0.00699199 -0.0200311 -0.0109604
0.00132281 -0.0113384 -0.00982658
-0.000377945 0.00831479 -0.00548021
-0.0111494 0.0187083 -0.00264562
-0.0187083 0.00377945 -0.0109604
-0.0166296 -0.0156847 -0.0153068
-0.0141729 0.048377 0.0096376
0.0257003 -0.0387394 0.0130391
0.0406291 0.00774788 -0.0249444
0.00491329 -0.0270231 0.00510226
0.00907068 -0.00831479 0.0075589
0.00302356 0.00075589 0.00453534
-0.0100155 -0.00774788 0.00585815
0.020409 0.00944863 0.0151178
0.0245664 0.0362827 0.0185193
0.0175745 0.0427078 0.0134171
0.00661404 0.0243775 0.00510226
-0.0149288 -0.013795 0.013795
0.000944863 -0.0453534 0.00925966
0.109604 0.0311805 -0.0706758
-0.0221098 -0.0187083 -0.00264562
0.00736993 -0.00585815 -0.00566918
-0.0102045 -0.00226767 0.00548021
-0.0041574 -0.00529123 -0.000944863
-0.0419519 -0.00151178 -0.0194642
-0.0474321 0.00113384 -0.0128501
0.00925966 -0.0177634 -0.0103935
0.00642507 0.0170075 -0.00264562
-0.0264562 0.00869274 -0.0120942
-0.0232436 -0.0255113 -0.0194642
-0.0196532 0.048188 0.0113384
-0.0315584 0.0593374 0.0194642
0.00718096 0.0629279 0.00793685
0.0474321 -0.0496998 0.0217318
0.00529123 -0.0636838 0.0289128
0.0487549 -0.0228657 0.00340151
0.0262672 0.00340151 0.0192752
0.0330702 0.0525344 0.0257003
0.020976 0.0634948 0.0162516
0.00132281 0.0308025 0.00170075
-0.0103935 0.00642507 0.00699199
Vibration 12
0.00075589 -0.00377945 -0.0177634
0.000188973 0.00491329 -0.0300466
-0.00793685 0.00944863 -0.0188973
-0.0141729 0.00604712 -0.00529123
-0.0149288 -0.00188973 -0.000944863
-0.00661404 -0.00793685 -0.00585815
-0.0228657 -0.00642507 0.0117163
-0.00642507 -0.0183303 0.00075589
-0.00642507 -0.0272121 0.00283459
0.0128501 -0.0107714 -0.0075589
0.00075589 -0.0102045 -0.0096376
0.00850377 -0.0147399 0.00283459
0.0270231 -0.0179524 0.0156847
0.0470542 -0.0226767 0.0228657
0.0398732 -0.0188973 0.0111494
0.0272121 -0.0196532 0.0266451
-0.00869274 0.00925966 -0.0117163
-0.0198421 0.00510226 -0.00661404
-0.0202201 -0.00472431 0.00170075
-0.00944863 -0.0103935 0.00472431
0.00132281 -0.00472431 0.00170075
0.00113384 0.00548021 -0.00642507
-0.00925966 -0.0241885 0.0119053
-0.0566918 0.0387394 -0.0311805
-0.00264562 0.00661404 -0.000188973
-0.00283459 0.0221098 0.0247554
-0.000377945 0.0151178 0.0141729
-0.00472431 0.000188973 0.00132281
-0.00869274 0.00283459 0.0062361
0.00585815 0.0236216 0.0179524
0.00718096 0.013606 0.00585815
0.00283459 -0.00585815 -0.00982658
-0.00321253 -0.0124722 -0.0122832
-0.00680301 0.00245664 0.0100155
-0.00245664 0.0268341 0.0285349
0.0548021 0.0381725 -0.0491329
0.00642507 0.00831479 -0.0440306
-0.0393063 -0.00982658 0.0328812
-0.0166296 -0.00585815 -0.0217318
-0.00188973 -0.0141729 0.000944863
0.068975 -0.0302356 0.0376055
0.054991 -0.0221098 0.0160627
-0.0287238 0.00907068 -0.0096376
-0.0287238 -0.00831479 0.00491329
0.0100155 -0.00850377 0.00491329
0.00925966 0.00907068 -0.00925966
-0.0153068 -0.027401 0.0134171
0.00151178 -0.0279679 0.013795
-0.013984 -0.0289128 0.0141729
-0.0854156 0.0538572 -0.0447865
-0.0215429 0.082581 -0.0882502
-0.122643 0.0211649 -0.000566918
0.00925966 0.0376055 0.0298577
0.0115273 0.0202201 0.00869274
0.00377945 -0.0154958 -0.0202201
-0.00718096 -0.0272121 -0.0245664
-0.0179524 -0.00321253 -0.00075589
Vibration 13
-0.0170075 0.0103935 0.0198421
-0.0166296 -0.00075589 0.0238105
-0.00585815 -0.00718096 -0.000566918
0.0020787 -0.00340151 -0.0179524
0.00302356 0.00680301 -0.0117163
-0.00850377 0.0147399 0.00170075
0.0177634 0.0145509 -0.0149288
-0.00850377 0.0262672 -0.00491329
-0.00888171 0.0359048 -0.0115273
-0.0158737 0.0096376 0.0215429
-0.020409 0.0251334 0.00736993
-0.000188973 0.0147399 0.00434637
0.0226767 -0.0107714 0.0147399
0.0257003 -0.0255113 0.0272121
0.0062361 -0.013795 0.0308025
0.0498888 -0.0239995 0.0143619
-0.00566918 -0.0128501 -0.00793685
-0.00245664 -0.0132281 -0.0107714
-0.00321253 -0.00566918 -0.00812582
-0.0075589 0.00245664 -0.0020787
-0.00982658 -0.00264562 -0.00529123
-0.00869274 -0.0107714 -0.00850377
-0.0096376 0.0194642 0.0096376
-0.0309915 0.00491329 -0.0521564
0.00925966 0.0243775 -0.00566918
0.00888171 -0.0304246 -0.0255113
0.00604712 -0.0215429 -0.0122832
0.0105825 -0.0126612 -0.0020787
0.0120942 -0.0154958 -0.00718096
0 -0.0111494 -0.00529123
-0.000944863 0.0111494 0.0141729
0.00340151 0.0213539 0.0249444
0.00907068 0.00774788 0.0158737
0.0181414 -0.00718096 -0.00188973
0.00736993 -0.0381725 -0.0268341
-0.0351489 0.0141729 0.020787
-0.0249444 -0.00566918 0.041385
0.0444086 0.0383614 -0.0188973
-0.0389284 0.0457314 -0.000566918
-0.00283459 0.0257003 -0.00566918
0.0451645 -0.047999 0.0359048
0.00925966 -0.0253223 0.0408181
0.00075589 -0.0177634 -0.0132281
-0.00075589 -0.00472431 -0.00907068
-0.0124722 0.00075589 -0.00359048
-0.0107714 -0.0132281 -0.00944863
-0.0168186 0.020787 0.0120942
-0.0185193 0.0253223 0.0156847
0.00472431 0.0270231 0.0117163
-0.0321253 0.0132281 -0.0735103
-0.013984 0.027401 -0.111305
-0.101289 -0.00548021 -0.0187083
-0.00340151 -0.0188973 -0.013795
-0.00491329 0.0219208 0.0213539
0.00264562 0.0408181 0.041385
0.0130391 0.0164406 0.0251334
0.0221098 -0.00585815 0.00075589
Vibration 14
0.00396842 0.00283459 0.0122832
0.00340151 0.0130391 0.0143619
-0.00491329 0.0183303 -0.0075589
-0.0149288 0.0102045 -0.0353379
-0.0154958 0.000566918 -0.0247554
-0.00680301 -0.00226767 -0.00359048
-0.0132281 0.000944863 -0.013984
-0.00642507 -0.0168186 0.0102045
-0.00548021 -0.0340151 0.0232436
0.0122832 -0.00132281 0.0190862
0.0226767 -0.00170075 0.020787
0.013795 0.00359048 0.00888171
-0.00472431 0.00850377 -0.00359048
-0.00453534 0.00283459 0.000944863
0.00359048 -0.00132281 0.0120942
-0.0285349 0.0226767 -0.0270231
-0.00680301 0.0285349 0.00699199
-0.0149288 0.0264562 0.0115273
-0.013984 0.0113384 0.0096376
-0.00453534 -0.000377945 0.00396842
0.00132281 0.0168186 0.0156847
0 0.0311805 0.0168186
-0.000377945 -0.0379835 -0.0185193
0.0173855 -0.00925966 0.00434637
-0.0130391 0.0289128 -0.00510226
0.00925966 -0.0281569 -0.0151178
0.00774788 -0.0234326 -0.00793685
0.00944863 -0.0417629 -0.0145509
0.00869274 -0.0406291 -0.0170075
0.00453534 0.0147399 0.0149288
0.00340151 0.0298577 0.0283459
0.00548021 0.000944863 0.0151178
0.00850377 -0.0372276 -0.00699199
0.0287238 -0.0196532 -0.00340151
0.00793685 -0.0309915 -0.0115273
-0.0166296 0.0538572 -0.0236216
0.0100155 0.0168186 0.0328812
-0.00718096 0.0285349 0.0221098
0.0362827 -0.00491329 0.0302356
0.0188973 0.00472431 0.00850377
-0.013606 0.00396842 -0.00585815
0.000944863 -0.00396842 0.013795
-0.0217318 0.0334482 0.013984
-0.0200311 0.00604712 0.00944863
0.0075589 0.0160627 0.0202201
0.00529123 0.0404401 0.0215429
0.0130391 -0.0442196 -0.0234326
0.0200311 -0.0498888 -0.02759
-0.0308025 -0.0531013 -0.0241885
0.00566918 -0.000566918 -0.00812582
0.0154958 -0.013984 0.0608492
0.0608492 -0.034393 -0.0194642
0.00264562 0.0349599 0.0234326
0.00151178 0.0648176 0.0493218
0.00472431 0.0107714 0.0249444
0.00982658 -0.0578256 -0.0151178
0.0111494 -0.0421409 -0.0158737
Vibration 15
0.00359048 0.00396842 0.034393
0.00283459 0.00566918 0.0124722
0.00283459 0.00585815 -0.0258892
0.00188973 0.00548021 -0.0262672
0.000944863 0.00359048 0.0020787
0.00264562 0.00321253 0.0187083
-0.00491329 0.00151178 0.0103935
0.00075589 -0.00718096 -0.00661404
-0.00321253 -0.0241885 -0.0425188
0.00982658 0.00113384 0.0440306
0.0247554 0.00718096 0.0404401
0.0190862 0.0115273 0.0188973
-0.00170075 0.00793685 0.00226767
-0.00283459 -0.00680301 0.013984
0.0020787 -0.00812582 0.034393
-0.0255113 0.0238105 -0.0374166
0.00491329 -0.00982658 -0.0459203
-0.00699199 -0.0232436 -0.048188
-0.0096376 -0.0264562 -0.0255113
0.00151178 -0.013984 0.000188973
0.0181414 -0.0219208 -0.0200311
0.0192752 -0.0194642 -0.0432747
-0.00566918 0.0134171 0.062361
0.0173855 -0.0215429 -0.0141729
-0.0075589 0.00226767 0.0134171
-0.00585815 0.0100155 0.00510226
-0.00472431 0.0119053 0.00491329
-0.00585815 0.0111494 0.00302356