[Molden Format]
[FREQ]
-223.0
17.5
28.4
29.5
31.3
37.8
43.2
44.2
50.2
54.7
67.8
69.6
83.8
91.2
113.7
119.8
126.8
137.9
146.5
149.5
154.5
178.3
190.4
212.7
221.6
232.7
245.6
256.0
277.0
285.4
298.9
326.6
334.8
350.0
351.7
358.1
368.7
378.0
402.7
412.5
442.4
453.4
473.7
500.1
516.3
528.8
544.5
550.5
558.2
573.4
582.0
595.3
604.5
613.4
618.3
627.7
637.5
665.8
670.6
678.8
693.3
712.8
729.4
741.0
759.9
782.8
804.2
816.3
832.7
848.9
866.8
882.5
883.1
899.1
902.5
937.7
943.7
958.6
989.1
1004.8
1010.1
1010.6
1019.1
1019.4
1024.8
1033.3
1046.2
1058.5
1070.2
1081.5
1091.2
1117.1
1125.7
1149.1
1175.7
1176.8
1181.4
1186.1
1204.1
1208.3
1249.1
1252.0
1255.8
1263.3
1264.4
1274.3
1279.4
1285.5
1293.1
1299.4
1320.0
1325.8
1326.3
1329.3
1337.3
1347.8
1349.5
1356.3
1362.5
1373.5
1388.2
1410.6
1426.6
1455.6
1505.1
1519.0
1529.9
1534.2
1537.7
1546.5
1583.0
1590.5
1646.6
1685.5
1693.6
1694.1
1694.4
1704.0
1705.2
1711.1
1815.4
1847.1
1978.9
2454.5
2651.1
2653.2
2663.9
2671.3
2713.4
2738.5
2740.0
2740.3
2744.4
2745.1
2747.2
2747.8
2753.2
2756.5
2760.1
2763.6
2763.7
2765.8
2768.0
2778.6
2861.1
       
[FR-COORD]
C -2.48877 -2.90602 -0.25927
C 0.183492 -2.90602 -0.25927
C 1.52784 -0.674443 -0.25927
N 0.272121 1.61213 -0.148343
C -2.37066 1.68734 -0.0536682
C -3.76415 -0.610759 -0.138706
N -3.40963 3.98638 0.631168
C -6.43773 -0.473943 -0.187083
N -8.62244 -0.376811 -0.233759
C -3.81687 -5.32147 -0.404212
C -3.21518 -7.0158 -2.35573
C -4.4556 -9.30936 -2.53979
C -6.31017 -9.91331 -0.731513
C -6.92131 -8.25716 1.22964
C -5.66672 -5.9515 1.37043
O -7.36332 -12.212 -1.12344
C 4.30517 -0.668396 -0.277979
C 5.59567 -1.27557 1.94491
C 8.22258 -1.26801 1.97004
C 9.56938 -0.681057 -0.227334
C 8.26415 -0.129824 -2.45778
C 5.63649 -0.131903 -2.49123
C 12.3828 -0.649877 -0.214106
C -9.35225 -12.9614 0.521942
C -2.26162 5.97172 0.0393063
C -1.33018 8.38169 0.550099
C 1.13497 7.91493 1.92374
C 2.45986 5.68297 1.39424
C 1.6314 4.06197 -0.73019
C 2.02465 9.59357 3.73315
C 4.2311 9.01607 5.05653
C 5.53047 6.77788 4.5618
C 4.65836 5.10812 2.71894
O 2.20588 4.2927 -2.91056
O -2.04695 10.4542 -0.0823921
O 0.824865 0.876077 -6.42299
H 1.19468 -4.70485 -0.293852
H 0.0772898 1.76727 -7.79606
H -1.78144 -6.50255 -3.75224
H -4.03702 -10.6412 -4.04836
H -8.35372 -8.72619 2.61992
H -6.13594 -4.63096 2.88769
H 4.54706 -1.74535 3.65605
H 9.23037 -1.7274 3.70235
H 9.30596 0.30538 -4.17894
H 4.62246 0.277412 -4.2534
H 13.1321 1.14669 -0.949776
H 13.1576 -2.1643 -1.4137
H 13.191 -0.909714 1.67959
H -9.87722 -14.8173 -0.249633
H -10.9485 -11.6505 0.398921
H -8.66987 -13.1531 2.4642
H 0.995886 11.347 4.09598
H 4.94088 10.3213 6.48252
H 7.24729 6.33304 5.60493
H 5.71812 3.38903 2.30887
H 1.1104 2.11139 -5.13968

[FR-NORM-COORD]
Vibration 1
0.00907068 -0.0117163 0.00302356
-0.00699199 0.00869274 -0.0107714
-0.0105825 0.0300466 -0.0117163
-0.0315584 0.00226767 0.020976
-0.00812582 -0.0351489 0.0744552
-0.00812582 -0.00264562 0.0351489
-0.062361 0.0400622 -0.0748331
-0.00907068 -0.00869274 0.0226767
-0.00793685 -0.0075589 0.00245664
0.0041574 -0.00566918 -0.000944863
0.0020787 -0.00548021 -0.00188973
0 -0.00359048 -0.00170075
-0.000377945 -0.00226767 -0.00113384
0 -0.00075589 -0.00132281
0.00151178 -0.00245664 -0.00151178
-0.00075589 -0.00075589 -0.000188973
-0.0102045 0.0175745 -0.00869274
-0.0122832 0.00548021 -0.00869274
-0.0124722 -0.00170075 -0.00491329
-0.00699199 -0.000944863 -0.0020787
-0.00359048 0.00548021 -0.00151178
-0.00472431 0.0196532 -0.00396842
-0.00642507 -0.00283459 0.00170075
-0.000566918 -0.00113384 0.000566918
0.307458 -0.147777 -0.178768
0.0453534 -0.0330702 -0.00812582
0.0158737 0.041196 0.0508336
-0.00491329 0.0289128 0.0241885
-0.13247 0.119053 -0.00113384
0.0215429 0.0291018 0.0472432
0.0279679 0.000377945 0.02759
0.0096376 -0.0041574 0.00548021
-0.00604712 0.00170075 0.00188973
-0.0241885 0.00661404 0.00434637
-0.034204 -0.0699199 -0.0105825
-0.0105825 0.000377945 0.0151178
0.0151178 0.0190862 -0.0200311
0.0498888 0.0173855 -0.00566918
0.00170075 -0.00680301 -0.00340151
-0.0020787 -0.0041574 -0.00226767
-0.000944863 0 -0.00170075
0.0020787 -0.00226767 -0.00132281
-0.0134171 0.00642507 -0.00982658
-0.0158737 -0.00585815 -0.00434637
-0.00151178 0.00699199 0.000188973
-0.00132281 0.0457314 -0.000944863
-0.00510226 -0.00226767 0.0041574
-0.00529123 -0.00188973 0.00170075
-0.00925966 -0.00396842 0.00264562
0 -0.00151178 0.000377945
-0.000944863 -0.00170075 0.000377945
-0.000188973 -0.00113384 0.000377945
0.0357158 0.0315584 0.0634948
0.0470542 -0.0132281 0.0298577
0.0158737 -0.0160627 -0.0096376
-0.0154958 0.0020787 -0.0171965
0.0321253 0.0168186 0.00283459
Vibration 2
-0.000377945 0.00340151 -0.0202201
-0.000377945 0.00283459 -0.0175745
0.000377945 0.00245664 -0.0171965
0.000944863 0.00264562 -0.0175745
0.000377945 0.00396842 -0.0268341
0 0.0041574 -0.0315584
-0.00151178 0.00226767 -0.0251334
0.000377945 0.00529123 -0.0453534
0.00075589 0.00680301 -0.0580146
-0.00075589 0.00283459 -0.00585815
0.00188973 -0.013984 0.0096376
0.0041574 -0.0168186 0.0292908
0.00359048 -0.00264562 0.0336371
-0.000377945 0.0149288 0.0175745
-0.00245664 0.0173855 -0.00226767
0.0075589 -0.00793685 0.0548021
0.000377945 0.000566918 -0.0160627
-0.00075589 -0.0103935 -0.0183303
-0.00075589 -0.013984 -0.0179524
0.000377945 -0.00680301 -0.0154958
0.00151178 0.0041574 -0.0132281
0.00132281 0.00793685 -0.013606
0.000377945 -0.0113384 -0.0151178
0.00925966 0.00359048 0.062172
0.00151178 0.00453534 -0.0119053
0.00075589 0.000944863 0.00566918
-0.00812582 -0.00925966 0.0185193
-0.00661404 -0.0075589 0.0147399
0.00566918 0.00396842 0.00113384
-0.0187083 -0.020409 0.034204
-0.027779 -0.0296687 0.0451645
-0.0262672 -0.027779 0.0408181
-0.0158737 -0.0168186 0.0260782
0.0175745 0.0158737 0.00566918
0.00699199 0.00510226 0.0122832
0.0266451 0.0566918 -0.0374166
-0.00075589 0.00264562 -0.0143619
0.0355268 0.0750221 -0.0304246
0.00245664 -0.0253223 0.00604712
0.00661404 -0.0300466 0.041574
-0.00151178 0.0264562 0.0202201
-0.00529123 0.0308025 -0.0147399
-0.00151178 -0.0162516 -0.020598
-0.00151178 -0.0222988 -0.0196532
0.0020787 0.00982658 -0.0113384
0.00245664 0.0166296 -0.0122832
0.00340151 -0.0105825 -0.0100155
-0.00188973 -0.00944863 -0.0192752
-0.000188973 -0.0179524 -0.0156847
0.0141729 -0.00548021 0.0808803
0.00585815 -0.00170075 0.048377
0.00925966 0.0249444 0.0642507
-0.0198421 -0.0217318 0.0376055
-0.0359048 -0.0383614 0.0572587
-0.0330702 -0.0349599 0.0491329
-0.0147399 -0.0154958 0.0232436
0.0215429 0.0402512 -0.020787
Vibration 3
-0.0171965 0.013606 -0.0147399
-0.0170075 0.0103935 -0.0149288
-0.0141729 0.00850377 -0.00944863
-0.0111494 0.0096376 -0.00812582
-0.0111494 0.0126612 -0.00453534
-0.0143619 0.0145509 -0.00774788
-0.00491329 0.0128501 0.00396842
-0.0143619 0.0171965 -0.00188973
-0.0143619 0.0188973 0.00377945
-0.0147399 0.0124722 -0.0171965
-0.0147399 0.0175745 -0.0219208
0.00151178 0.00831479 -0.0143619
0.0187083 -0.00661404 -0.00170075
0.0132281 -0.00831479 -0.00188973
-0.00377945 0.00170075 -0.0100155
0.0408181 -0.0187083 0.0100155
-0.0141729 0.0020787 0.000566918
-0.0266451 -0.00982658 0.00472431
-0.0266451 -0.0219208 0.0164406
-0.0145509 -0.0217318 0.0239995
-0.00226767 -0.00736993 0.020409
-0.00226767 0.00453534 0.00850377
-0.0143619 -0.0360938 0.0360938
0.0702978 -0.0436527 0.0340151
-0.00113384 0.0120942 0.00831479
0.00245664 0.00925966 0.0168186
0.00888171 0.00226767 0.00283459
0.00453534 0.00321253 -0.0119053
-0.00925966 0.00850377 -0.0105825
0.020787 -0.00377945 0.00245664
0.0291018 -0.00831479 -0.0134171
0.0258892 -0.00680301 -0.0291018
0.013606 -0.00075589 -0.0285349
-0.0170075 0.00907068 -0.0124722
0.000377945 0.0126612 0.0304246
0.00642507 -0.00736993 -0.00566918
-0.0192752 0.00907068 -0.0183303
0.0141729 -0.0124722 -0.0132281
-0.0264562 0.0283459 -0.0300466
0.00283459 0.0111494 -0.0166296
0.0228657 -0.0175745 0.00453534
-0.0075589 0.000188973 -0.00982658
-0.0362827 -0.0100155 -0.00113384
-0.0364717 -0.0319364 0.0194642
0.00736993 -0.00604712 0.0264562
0.00736993 0.0149288 0.00548021
-0.00359048 -0.0245664 0.0754001
-0.0162516 -0.0153068 0.00869274
-0.0232436 -0.0780457 0.0340151
0.0903289 -0.0542351 0.0457314
0.0489439 -0.0684081 0.0466762
0.0937304 -0.0268341 0.027401
0.0238105 -0.00453534 0.0143619
0.0383614 -0.0130391 -0.013606
0.0328812 -0.0102045 -0.0421409
0.0107714 0.000377945 -0.0410071
-0.00321253 -0.00302356 -0.00774788
Vibration 4
0.00283459 -0.00888171 -0.0111494
0.00283459 -0.00736993 -0.013984
0.00132281 -0.00642507 -0.0134171
-0.000377945 -0.00718096 -0.0128501
-0.000188973 -0.00907068 -0.00869274
0.00132281 -0.0096376 -0.0113384
0.00132281 -0.0119053 0.00151178
0.00132281 -0.0109604 -0.0130391
0.00132281 -0.0115273 -0.0154958
0.000566918 -0.00812582 -0.00359048
-0.00850377 -0.013984 -0.000944863
-0.0177634 -0.0096376 0.00510226
-0.0177634 0.00075589 0.00850377
-0.00642507 0.00529123 0.00812582
0.00264562 0.000566918 0.0020787
-0.0300466 0.00566918 0.0124722
0.00132281 0.000566918 -0.00548021
-0.00585815 -0.00888171 -0.00359048
-0.00604712 0.0145509 0.0115273
0.00132281 0.0478101 0.0249444
0.00925966 0.0504557 0.020976
0.00944863 0.0262672 0.00566918
0.00075589 0.0801244 0.0438416
-0.034582 0.0198421 0.013606
0.00132281 -0.0096376 0.00793685
-0.00113384 -0.0113384 0.0228657
0.00699199 -0.0158737 0.0062361
0.00812582 -0.0102045 -0.0141729
-0.00434637 -0.00434637 -0.013984
0.0160627 -0.0232436 0.00869274
0.02759 -0.0239995 -0.0107714
0.0309915 -0.0168186 -0.0336371
0.0211649 -0.0096376 -0.0355268
-0.0153068 0.000188973 -0.0164406
-0.00888171 -0.00812582 0.0425188
0.0171965 -0.0100155 -0.0190862
0.00396842 -0.00680301 -0.0151178
0.0213539 -0.0130391 -0.0232436
-0.00869274 -0.0219208 -0.0041574
-0.0251334 -0.013795 0.00661404
-0.00491329 0.0126612 0.0120942
0.0113384 0.00434637 0.00151178
-0.0115273 -0.0319364 -0.0134171
-0.0119053 0.00850377 0.0134171
0.0151178 0.0727545 0.0302356
0.0160627 0.0291018 0.00245664
-0.0130391 0.0767229 0.0217318
0.0253223 0.0699199 0.0723765
-0.0096376 0.117541 0.0534792
-0.0470542 0.0228657 0.0149288
-0.0258892 0.0302356 0.0134171
-0.0349599 0.0164406 0.0134171
0.0141729 -0.027779 0.0255113
0.034393 -0.0296687 -0.00888171
0.0408181 -0.0170075 -0.0502667
0.0239995 -0.00359048 -0.0532903
0.00264562 -0.00907068 -0.0166296
Vibration 5
0.00302356 -0.00340151 -0.0041574
0.00283459 -0.00396842 -0.0198421
0.00283459 -0.00396842 -0.013606
0.00264562 -0.00396842 -0.00774788
0.00302356 -0.00359048 0.000566918
0.00340151 -0.00453534 0.0119053
0.00188973 -0.00283459 -0.00377945
0.00245664 -0.00831479 0.0451645
0.00151178 -0.0134171 0.0763449
-0.000377945 -0.00188973 -0.00321253
-0.0434637 0.0213539 -0.0362827
-0.0517785 0.0257003 -0.0381725
-0.013984 0.00661404 -0.00585815
0.0313695 -0.0170075 0.0281569
0.0370386 -0.0202201 0.0289128
-0.02759 0.013984 -0.0128501
0.00283459 -0.00321253 -0.00774788
-0.00434637 -0.00510226 -0.00377945
-0.00453534 -0.00264562 0.00585815
0.00283459 0.00170075 0.0115273
0.0103935 0.00302356 0.0075589
0.0103935 0.000566918 -0.0020787
0.00264562 0.00566918 0.0222988
0.0109604 -0.00566918 0.0247554
-0.00151178 -0.00302356 -0.0107714
-0.000566918 -0.00188973 -0.0202201
-0.00566918 0 -0.0100155
-0.0062361 -0.00321253 0.00151178
0.00396842 -0.00434637 -0.00170075
-0.0124722 0.00264562 -0.00907068
-0.020787 0.00151178 0.00434637
-0.0226767 -0.00245664 0.0170075
-0.0154958 -0.00491329 0.0158737
0.0124722 -0.00188973 0.000944863
0.0041574 -0.00377945 -0.0319364
0.0557469 0.0319364 -0.048566
0.0020787 -0.0041574 -0.0330702
0.0833369 0.0542351 -0.0493218
-0.0712427 0.0357158 -0.0593374
-0.0863605 0.0438416 -0.0638727
0.0610381 -0.0323143 0.0536682
0.0706758 -0.0370386 0.0538572
-0.0102045 -0.00869274 -0.00831479
-0.0103935 -0.00396842 0.00888171
0.0160627 0.00604712 0.0117163
0.0168186 0.00188973 -0.00548021
0.00264562 0.0109604 0.0349599
0.0096376 0.013606 0.0166296
-0.00396842 -0.00359048 0.0238105
-0.0109604 0.00604712 0.0113384
0.0102045 -0.00132281 0.0822031
0.0580146 -0.034393 0.00548021
-0.0115273 0.00510226 -0.0185193
-0.0258892 0.00359048 0.00510226
-0.0298577 -0.00377945 0.0283459
-0.0168186 -0.00812582 0.0260782
0.0351489 0.0132281 -0.0257003
Vibration 6
-0.000188973 0.00283459 -0.0145509
-0.000188973 -0.00283459 -0.0103935
0.00264562 -0.00472431 -0.00453534
0.00548021 -0.00283459 -0.00075589
0.00548021 0.0020787 -0.00982658
0.00264562 0.00396842 -0.0156847
0.00604712 0.00321253 -0.0109604
0.00283459 0.00529123 -0.0249444
0.00302356 0.00548021 -0.0336371
-0.00510226 0.00529123 -0.0149288
-0.0338261 0.0181414 -0.034204
-0.0359048 0.0187083 -0.0291018
-0.00680301 0.00642507 -0.00321253
0.0198421 -0.0041574 0.013984
0.0194642 -0.00359048 0.00736993
-0.00869274 0.00642507 0.00170075
0.00283459 -0.00396842 -0.00359048
0.00396842 -0.0096376 -0.00585815
0.00396842 0.00283459 -0.0041574
0.00264562 0.020976 0
0.00188973 0.0215429 0.00075589
0.00188973 0.00888171 -0.00113384
0.00245664 0.0389284 0.00359048
0.0317474 -0.013795 0.041196
0.00718096 0.00302356 -0.00699199
0.0160627 0.000377945 -0.0156847
0.00774788 -0.00377945 -0.00170075
0.00548021 -0.00736993 0.0075589
0.0120942 -0.00585815 0.00434637
0.000566918 -0.00548021 0.00340151
-0.00982658 -0.0109604 0.0181414
-0.0128501 -0.0149288 0.0279679
-0.00510226 -0.0132281 0.0226767
0.0158737 -0.00604712 0.00529123
0.0285349 0.00075589 -0.0289128
-0.075778 -0.0457314 0.0789905
-0.00377945 -0.00472431 -0.0141729
-0.119809 -0.0769118 0.08277
-0.0540462 0.0272121 -0.0517785
-0.0585815 0.0279679 -0.0434637
0.0402512 -0.0124722 0.0321253
0.0393063 -0.0102045 0.0192752
0.00491329 -0.0224877 -0.00888171
0.00491329 -0.000566918 -0.00566918
0.000944863 0.0332592 0.00321253
0.000566918 0.0100155 0
-0.00680301 0.0328812 -0.020598
0.0130391 0.0264562 0.0262672
0.00113384 0.0706758 0.00869274
0.0257003 -0.0128501 0.0428968
0.0215429 -0.0224877 0.08277
0.0750221 -0.0200311 0.0255113
0.00283459 -0.00245664 -0.0041574
-0.0156847 -0.0124722 0.0224877
-0.0211649 -0.0194642 0.0396842
-0.00736993 -0.0164406 0.0306136
-0.0332592 -0.0181414 0.0425188
Vibration 7
-0.0158737 0.00226767 0.0062361
-0.0151178 -0.00453534 0.00359048
-0.00907068 -0.00869274 0.00264562
-0.00340151 -0.00529123 0.00340151
-0.00264562 0.00245664 0.00680301
-0.00907068 0.00585815 0.0117163
0.00340151 0.00718096 0.00377945
-0.00888171 0.0153068 0.0232436
-0.00869274 0.0245664 0.0353379
-0.0162516 0.00302356 0.00075589
0.00812582 -0.00377945 0.0134171
0.0202201 -0.00982658 0.0119053
0.00585815 -0.00982658 -0.00264562
-0.0236216 -0.00113384 -0.0194642
-0.0340151 0.00472431 -0.0171965
0.0249444 -0.0192752 0.000944863
-0.00925966 -0.0107714 -0.00075589
-0.0062361 -0.0188973 -0.00472431
-0.0062361 -0.00188973 -0.0041574
-0.00944863 0.0234326 0.000566918
-0.0122832 0.0230547 0.00226767
-0.0120942 0.00566918 0.00151178
-0.00982658 0.0457314 0.0041574
0.0173855 -0.0251334 -0.0109604
0.0075589 0.00302356 0.000188973
0.0221098 0.00075589 -0.0187083
0.0156847 -0.00302356 -0.00850377
0.00642507 -0.0117163 0.00472431
0.00529123 -0.0107714 0.00472431
0.0175745 -0.000566918 -0.0119053
0.00907068 -0.00774788 -0.000566918
-0.00170075 -0.0171965 0.0141729
-0.00283459 -0.0194642 0.0168186
0.00793685 -0.0109604 0.00548021
0.0370386 0 -0.0389284
-0.00699199 0.0260782 -0.0245664
-0.0196532 -0.00699199 0.00302356
-0.00132281 0.0445975 -0.0156847
0.0188973 -0.0041574 0.0239995
0.041196 -0.0153068 0.0224877
-0.0374166 0.00075589 -0.0330702
-0.0555579 0.0096376 -0.0279679
-0.00377945 -0.0364717 -0.00812582
-0.00340151 -0.00699199 -0.00718096
-0.0147399 0.0381725 0.00453534
-0.0141729 0.00699199 0.00283459
-0.0156847 -0.0115273 -0.140029
-0.000377945 -0.0489439 0.129068
-0.0132281 0.20409 0.02759
0.0417629 -0.0360938 -0.00132281
0.00642507 -0.0408181 -0.0355268
0.00151178 -0.00377945 -0.00321253
0.0258892 0.00642507 -0.0228657
0.0105825 -0.00604712 -0.00283459
-0.00888171 -0.0230547 0.0238105
-0.0105825 -0.0268341 0.0279679
-0.00321253 0.0107714 -0.0107714
Vibration 8
-0.00264562 -0.000188973 0.00245664
-0.00245664 -0.00170075 -0.00113384
-0.000944863 -0.00283459 -0.00302356
0.000188973 -0.0020787 -0.00302356
0.000566918 0.000377945 0.000566918
-0.000944863 0.000944863 0.00529123
0.0020787 0.00170075 0.000377945
-0.000944863 0.00377945 0.0141729
-0.000944863 0.00661404 0.0230547
-0.00226767 -0.000188973 0.00264562
0.0102045 -0.00642507 0.0115273
0.0132281 -0.00793685 0.0113384
0.00245664 -0.00340151 0.00188973
-0.0109604 0.00283459 -0.0075589
-0.0126612 0.00377945 -0.00680301
0.00699199 -0.00548021 0.00302356
-0.000944863 -0.00245664 -0.00283459
-0.00245664 -0.0239995 -0.00793685
-0.00226767 -0.0198421 -0.00453534
-0.00075589 0.00642507 0.00359048
0.00075589 0.0281569 0.00774788
0.000944863 0.0228657 0.0041574
-0.00113384 0.0253223 0.0075589
-0.00604712 0.000188973 -0.0100155
0.00113384 0.00132281 -0.00113384
0.0096376 0 -0.013795
0.0062361 -0.00151178 -0.00793685
0.00170075 -0.00585815 -0.000566918
0.00245664 -0.0041574 -0.00188973
0.0062361 -0.000944863 -0.00831479
0 -0.00604712 -0.000377945
-0.0062361 -0.0117163 0.00850377
-0.00548021 -0.0120942 0.00850377
0.00151178 -0.00170075 -0.00188973
0.0177634 -0.00075589 -0.0258892
-0.0190862 0.0075589 -0.00302356
-0.00340151 -0.00226767 -0.0020787
-0.0319364 0.00907068 0.00491329
0.0177634 -0.00982658 0.0179524
0.0236216 -0.0126612 0.0185193
-0.0194642 0.00661404 -0.0149288
-0.0222988 0.0075589 -0.0130391
-0.00340151 -0.0440306 -0.0141729
-0.0041574 -0.0362827 -0.00793685
0.00245664 0.0498888 0.0143619
0.00226767 0.0381725 0.00699199
-0.0264562 0.160627 0.309726
0.0187083 0.238861 -0.247743
0.0041574 -0.284593 -0.0372276
0.00075589 -0.00283459 -0.00699199
-0.00548021 -0.000566918 -0.0279679
-0.0217318 0.00812582 -0.00377945
0.0105825 0.00283459 -0.0145509
0 -0.00585815 -0.000566918
-0.0119053 -0.0162516 0.0158737
-0.0109604 -0.0171965 0.0158737
-0.0109604 0.00510226 -0.00283459
Vibration 9
-0.0102045 -0.00340151 0.0062361
-0.0100155 -0.00888171 0.0173855
-0.0062361 -0.0113384 0.0196532
-0.00170075 -0.00869274 0.0192752
-0.00170075 -0.0041574 0.00944863
-0.0062361 -0.00113384 -0.00075589
0.00151178 -0.00132281 0.00396842
-0.00566918 0.00377945 -0.0238105
-0.00491329 0.0075589 -0.0457314
-0.0141729 -0.000944863 -0.00132281
-0.0196532 0.00604712 -0.00907068
-0.0181414 0.00548021 -0.0120942
-0.00982658 -0.00283459 -0.0062361
-0.00793685 -0.00774788 -0.00151178
-0.0107714 -0.00604712 0.000377945
-0.00434637 -0.00529123 -0.00699199
-0.0062361 -0.0119053 0.0128501
0.00529123 0.034771 0.0183303
0.00566918 0.0502667 0.00736993
-0.00661404 0.0171965 -0.00888171
-0.0187083 -0.0362827 -0.0153068
-0.0185193 -0.0502667 -0.0041574
-0.00699199 0.0462983 -0.0200311
0.0198421 -0.0249444 0.0132281
0.0109604 -0.0062361 0.00359048
0.00812582 -0.00510226 0.00604712
0.00831479 -0.0020787 0.00585815
0.00718096 -0.00434637 0.0119053
0.00434637 -0.0109604 0.0171965
0.0128501 0.00642507 -0.0041574
0.0173855 0.013984 -0.00831479
0.0173855 0.0130391 -0.00340151
0.0124722 0.00453534 0.00680301
0.0119053 -0.0190862 0.0183303
0.00661404 -0.00585815 0.00548021
0.020598 0.0190862 -0.0215429
-0.013606 -0.0107714 0.0221098
0.0540462 0.0453534 -0.0226767
-0.0243775 0.0117163 -0.0117163
-0.0221098 0.0107714 -0.0177634
-0.0041574 -0.0126612 0.000566918
-0.0096376 -0.00925966 0.00340151
0.0147399 0.0608492 0.0311805
0.0151178 0.089384 0.0120942
-0.027779 -0.0651955 -0.0281569
-0.0283459 -0.0880612 -0.00736993
-0.034582 0.0905179 0.0583925
0.00774788 0.111872 -0.0924076
0.00510226 -0.0296687 -0.0357158
0.0270231 -0.0279679 0.0154958
0.0075589 -0.0379835 0.0325033
0.0419519 -0.0226767 0.00566918
0.0130391 0.00774788 -0.00925966
0.020976 0.020976 -0.0166296
0.0217318 0.0192752 -0.00774788
0.0143619 0.00510226 0.00925966
0.0156847 0.00075589 -0.00226767
Vibration 10
0.00434637 -0.00585815 0.0162516
0.00377945 -0.00434637 0.0304246
0.00151178 -0.00226767 0.0253223
-0.00170075 -0.00434637 0.0166296
-0.0020787 -0.00585815 0.00907068
0.00075589 -0.00699199 0.00075589
-0.00321253 -0.00529123 0.00850377
0.00113384 -0.013606 -0.0319364
0.00151178 -0.0213539 -0.0644397
0.00510226 -0.0062361 0.0124722
-0.00850377 0.00604712 -0.0020787
-0.0128501 0.00888171 -0.00944863
-0.00151178 -0.00075589 -0.00113384
0.0145509 -0.013984 0.0151178
0.0168186 -0.0154958 0.0211649
-0.00869274 0.0041574 -0.0115273
0.00113384 0.000377945 0.0213539
0.00680301 -0.0410071 0.00680301
0.00680301 -0.0474321 -0.00132281
0.00132281 -0.00982658 0.00529123
-0.00453534 0.0374166 0.0202201
-0.00453534 0.0417629 0.027779
0.00151178 -0.0241885 -0.00434637
0.00113384 -0.00472431 -0.00359048
-0.000566918 -0.0062361 0.0115273
0.00151178 -0.00396842 -0.0020787
0.00585815 0.00680301 -0.00699199
0.000377945 0.000188973 0.00661404
-0.00548021 -0.00340151 0.0122832
0.0183303 0.0219208 -0.027401
0.0228657 0.0283459 -0.0319364
0.0122832 0.0179524 -0.0126612
0.000566918 0.00226767 0.00699199
-0.0102045 -0.00321253 0.0109604
-0.00283459 -0.00812582 -0.0111494
-0.0423299 0.061983 -0.0389284
0.00510226 -0.00377945 0.0408181
-0.0548021 0.0944863 -0.0111494
-0.0164406 0.013606 -0.00736993
-0.0247554 0.0187083 -0.0213539
0.0243775 -0.0224877 0.0222988
0.02759 -0.0236216 0.0313695
0.0111494 -0.0695419 0.00151178
0.0113384 -0.0820141 -0.0132281
-0.00888171 0.0693529 0.0255113
-0.00925966 0.075967 0.0383614
0.0109604 -0.0393063 -0.0308025
-0.0124722 -0.0455424 0.0132281
0.00585815 -0.0041574 -0.00340151
-0.0100155 0.00377945 -0.0162516
0.00396842 0.000944863 0.0202201
0.0153068 -0.0239995 -0.0103935
0.0247554 0.0281569 -0.0396842
0.034204 0.041385 -0.0493218
0.013606 0.0219208 -0.0130391
-0.00925966 -0.00736993 0.0219208
-0.0281569 0.0325033 -0.0145509
Vibration 11
-0.0041574 0.00944863 0.0398732
-0.00453534 0.00812582 0.05518
-0.00491329 0.00831479 0.0260782
-0.00680301 0.00812582 -0.00510226
-0.00736993 0.0105825 -0.00529123
-0.00642507 0.00925966 0.0103935
-0.00604712 0.013795 -0.0151178
-0.0062361 0.00377945 -0.00869274
-0.0062361 -0.00283459 -0.0268341
0 0.00699199 0.0364717
-0.00132281 0.0262672 0.0190862
0.00245664 0.0260782 0.00132281
0.00925966 0.00661404 0.00188973
0.0145509 -0.0145509 0.0211649
0.00925966 -0.0120942 0.0379835
0.0103935 0.00982658 -0.020976
-0.00491329 0.00680301 0.0160627
0.0062361 -0.00302356 0.00680301
0.00661404 -0.00377945 -0.00642507
-0.00396842 0.00548021 -0.0105825
-0.0151178 0.013795 -0.00188973
-0.0149288 0.0132281 0.0111494
-0.00396842 0.00604712 -0.0257003
0.00888171 -0.00699199 -0.0308025
-0.00302356 0.0124722 -0.0128501
0.00812582 0.00736993 -0.0103935
0.000944863 -0.00831479 -0.00132281
0.00264562 -0.00245664 -0.0200311
-0.0062361 0.0041574 -0.020976
-0.00831479 -0.0308025 0.0241885
-0.013606 -0.0459203 0.0264562
-0.00566918 -0.0353379 -0.00075589
0.00283459 -0.0128501 -0.0247554
-0.0211649 0.000566918 -0.0247554
0.0245664 0.0119053 -0.0134171
0.0323143 -0.0340151 -0.0132281
-0.00510226 0.00736993 0.0831479
0.0678412 -0.0447865 -0.0394953
-0.0062361 0.0423299 0.0200311
-0.000566918 0.041196 -0.0126612
0.0219208 -0.0321253 0.0228657
0.0111494 -0.0257003 0.0500777
0.0149288 -0.00925966 0.0103935
0.0151178 -0.0113384 -0.0134171
-0.0238105 0.0198421 -0.00566918
-0.0219208 0.0156847 0.0158737
-0.00831479 0.00793685 -0.0253223
-0.0103935 0.00925966 -0.0338261
0.00642507 0.00132281 -0.0308025
0.0041574 0.00453534 -0.055369
0.0120942 -0.00151178 -0.0124722
0.00925966 -0.034393 -0.0336371
-0.0113384 -0.0364717 0.0427078
-0.0230547 -0.0651955 0.0487549
-0.00699199 -0.0445975 -0.00245664
0.00831479 -0.00453534 -0.0447865
-0.000188973 -0.0238105 -0.0156847
Vibration 12
-0.00340151 -0.00151178 -0.00529123
-0.00359048 -0.00113384 -0.00831479
-0.00264562 -0.000944863 -0.000188973
-0.0041574 -0.00245664 0.0175745
-0.00340151 -0.00340151 0.0202201
-0.00377945 -0.00151178 0.00396842
-0.00472431 -0.0041574 0.0296687
-0.00340151 0.00075589 -0.0105825
-0.00283459 0.00396842 -0.0272121
-0.00661404 0.000566918 -0.00944863
-0.00491329 -0.0041574 -0.00453534
-0.00680301 -0.00340151 -0.0020787
-0.0103935 0.00151178 -0.0041574
-0.0156847 0.00812582 -0.0113384
-0.013795 0.00718096 -0.013984
-0.00850377 -0.000188973 0.00170075
-0.00226767 0.000566918 -0.00850377
0.00472431 -0.034204 -0.0219208
0.00491329 -0.034582 -0.0287238
0 0.00321253 -0.0217318
-0.00604712 0.0391173 -0.00888171
-0.00604712 0.0349599 -0.00264562
0 0.00321253 -0.0296687
0.00907068 -0.00850377 0.0194642
-0.00491329 -0.00472431 0.0292908
-0.00245664 -0.000566918 0.00472431
0.00170075 0.0128501 0.000566918
-0.00774788 0.00245664 0.0188973
-0.0117163 0.00264562 0.020598
0.013984 0.0287238 -0.020598
0.0126612 0.0302356 -0.0173855
-0.00529123 0.0134171 0.0113384
-0.0154958 -0.00170075 0.0296687
-0.0188973 0.00699199 0.0187083
-0.00680301 -0.00718096 -0.0124722
0.100155 -0.0606602 0.0374166
-0.00340151 -0.00075589 -0.0198421
0.189917 -0.0844708 -0.0268341
-0.00113384 -0.00888171 -0.00264562
-0.00453534 -0.00718096 0.00188973
-0.0211649 0.013984 -0.0149288
-0.0171965 0.0115273 -0.0188973
0.00982658 -0.061983 -0.0264562
0.00925966 -0.0640617 -0.0391173
-0.0113384 0.068786 -0.00453534
-0.00642507 0.0559359 0.00264562
-0.000944863 0.00226767 -0.0325033
-0.00453534 0.0020787 -0.0313695
0.00510226 0.00359048 -0.0317474
0.0179524 -0.0158737 0.0311805
-0.00170075 -0.0211649 0.0247554
0.0239995 0.00510226 0.0154958
0.0245664 0.0385504 -0.0389284
0.0241885 0.0436527 -0.0351489
-0.0102045 0.0122832 0.0188973
-0.0298577 -0.0158737 0.0515895
0.0326923 -0.034393 0.0287238
Vibration 13
0.0096376 -0.00491329 0.0185193
0.0103935 -0.00510226 0.027401
0.0119053 -0.00566918 0.0154958
0.0120942 -0.0041574 -0.00151178
0.0117163 -0.00453534 -0.00302356
0.0107714 -0.00434637 0.00850377
0.0107714 -0.00472431 -0.0158737
0.0111494 0.00340151 0.0111494
0.0115273 0.0143619 0.0166296
0.00075589 0.000566918 0.0102045
0.013606 -0.00510226 0.0188973
-0.00340151 0.00566918 0.00132281
-0.0309915 0.0192752 -0.0221098
-0.048377 0.0270231 -0.0340151
-0.0319364 0.0170075 -0.0179524
-0.0440306 0.0283459 -0.0383614
0.0122832 -0.00453534 0.0126612
0.0192752 -0.0151178 0.00566918
0.0196532 -0.0143619 -0.00151178
0.013984 -0.00075589 -0.00132281
0.00736993 0.0122832 0.00566918
0.00736993 0.00944863 0.0126612
0.013984 -0.000944863 -0.0100155
0.0515895 -0.0359048 0.0474321
0.00340151 -0.00302356 -0.0279679
-0.0153068 -0.00075589 0
-0.0115273 -0.00302356 -0.00699199
-0.00226767 0.00396842 -0.013984
0.00850377 -0.00453534 -0.0120942
-0.020976 -0.00831479 0.00283459
-0.020787 -0.00472431 0.00359048
-0.0096376 0.00377945 -0.0062361
-0.000566918 0.00831479 -0.0143619
0.013795 -0.013795 -0.0113384
-0.0323143 0.00226767 0.0306136
-0.00831479 -0.00226767 -0.0145509
0.00944863 -0.00566918 0.041196
-0.041574 -0.000566918 0.00453534
0.0381725 -0.0179524 0.0393063
0.00642507 0.00226767 0.00718096
-0.075967 0.0423299 -0.0572587
-0.0451645 0.0221098 -0.0262672
0.0245664 -0.0247554 0.0062361
0.0243775 -0.0241885 -0.00680301
0.00226767 0.0239995 0.00548021
0.00302356 0.0175745 0.0170075
0.0124722 -0.00132281 -0.0124722
0.00982658 -0.00132281 -0.0122832
0.0196532 -0.000944863 -0.0124722
0.0746442 -0.0504557 0.0663294
0.00699199 -0.0837149 0.118108
0.140218 -0.0192752 0.0181414
-0.0296687 -0.0145509 0.0100155
-0.0292908 -0.00907068 0.0115273
-0.00869274 0.00680301 -0.00661404
0.00604712 0.0134171 -0.0200311
0.00226767 -0.00793685 -0.0119053
Vibration 14
-0.0128501 0.00510226 0.0102045
-0.0115273 -0.00548021 0.0141729
-0.00170075 -0.0126612 0.00170075
0.00793685 -0.00529123 -0.0102045
0.00604712 0.00548021 -0.0221098
-0.0041574 0.00831479 -0.00548021
0.0187083 0.00907068 -0.0419519
-0.00321253 0.0241885 0.000188973
-0.00245664 0.0427078 0.00907068
-0.0132281 0.00453534 0.0128501
-0.0177634 0.0168186 0.000566918
-0.00434637 0.0100155 0.000188973
0.0128501 -0.00869274 0.0115273
0.0162516 -0.0202201 0.0221098
0.00264562 -0.0120942 0.0226767
0.0304246 -0.0171965 0.0119053
-0.00151178 -0.0228657 -0.00264562
0.00245664 -0.0400622 -0.00982658
0.00264562 -0.0308025 -0.0117163
-0.00075589 -0.00151178 -0.00604712
-0.00434637 0.00302356 -0.00283459
-0.0041574 -0.00925966 -0.00132281
-0.00113384 0.0287238 -0.00359048
-0.0168186 0.000377945 -0.0376055
0.0145509 0.00982658 -0.0546131
-0.0154958 0.0107714 0.00944863
-0.00377945 0.00434637 -0.0145509
-0.00793685 -0.00170075 0.000188973
0.0213539 -0.013984 -0.00302356
0.0041574 0.0170075 -0.0292908
-0.000944863 0.0196532 -0.020409
-0.0160627 0.00453534 0.00793685
-0.0192752 -0.00548021 0.0187083
0.0610381 -0.0266451 0.00604712
-0.0542351 0.020598 0.0861715
0.00812582 -0.0105825 0.0102045
-0.0200311 -0.0103935 0.0251334
-0.00699199 -0.00718096 0.020598
-0.0315584 0.0319364 -0.00812582
-0.0075589 0.0187083 -0.00850377
0.0306136 -0.0362827 0.0313695
0.00491329 -0.0198421 0.0296687
0.00566918 -0.0589595 -0.0130391
0.00566918 -0.0434637 -0.0168186
-0.00736993 0.0187083 -0.000566918
-0.00566918 -0.0062361 0.000566918
-0.0200311 0.0351489 -0.00699199
0.0164406 0.034393 0.000566918
-0.000377945 0.0419519 -0.0020787
-0.0173855 0.00718096 -0.0536682
-0.00075589 0.0168186 -0.0725655
-0.0646286 -0.0100155 -0.0219208
0.0107714 0.0251334 -0.0466762
0.00510226 0.0311805 -0.034204
-0.0245664 0.00113384 0.020598
-0.0302356 -0.0175745 0.0396842
0.0292908 -0.0124722 0.00718096
Vibration 15
-0.000944863 -0.00377945 -0.013984
0 -0.00661404 0
0.00453534 -0.00888171 0.0222988
0.00699199 -0.00642507 0.0245664
0.00812582 -0.00718096 0.013606
0.00321253 -0.00302356 0
0.00113384 -0.00812582 0.00472431
0.0041574 0.0192752 0.00359048
0.00548021 0.0532903 0.0105825
-0.0096376 0.00151178 -0.027779
-0.0257003 0.00377945 -0.034204
-0.020976 -0.00075589 -0.0200311
0.000377945 -0.00642507 -0.000188973
0.000944863 0.00170075 -0.00680301
-0.00321253 0.0041574 -0.0198421
0.0270231 -0.0251334 0.0364717
0.00510226 -0.00377945 0.0247554
0.0173855 -0.0117163 0.0149288
0.0181414 -0.0113384 0.000377945
0.00680301 0.00245664 -0.00264562
-0.00566918 0.0224877 0.00944863
-0.00510226 0.0164406 0.0228657
0.00718096 -0.0075589 -0.0239995
-0.0183303 0.0134171 0
0.000188973 -0.0102045 -0.00472431
-0.00661404 -0.00869274 -0.00529123
-0.0151178 -0.00812582 0.0109604
0.00718096 0.00944863 -0.00642507
0.00510226 -0.00680301 0.00642507
-0.0410071 -0.0188973 0.0334482
-0.027401 0.000566918 0.0190862