[Molden Format]
[FREQ]
-743.0
22.1
26.1
33.2
40.8
43.8
53.4
80.7
81.5
90.4
100.5
111.3
122.9
125.7
127.2
141.4
158.9
171.6
182.1
188.9
219.5
231.3
237.3
256.9
268.2
278.9
288.0
311.0
324.8
331.6
344.4
360.1
361.5
365.3
378.6
401.5
431.7
457.9
481.3
491.0
501.0
514.4
526.6
528.4
540.5
542.2
548.0
579.7
585.0
612.2
613.0
623.6
632.1
651.8
661.2
671.1
706.3
717.2
722.6
724.5
749.1
759.3
790.1
807.7
809.4
830.2
847.5
857.0
880.5
883.8
883.9
901.9
905.1
920.9
936.8
949.7
965.0
967.3
996.7
1004.9
1009.7
1010.7
1011.0
1019.9
1023.4
1034.4
1044.2
1046.5
1073.4
1075.1
1082.6
1092.7
1125.9
1128.2
1154.0
1163.0
1176.1
1185.5
1190.2
1191.1
1192.9
1238.7
1242.0
1259.2
1262.7
1266.5
1272.7
1280.0
1284.4
1293.7
1300.2
1301.2
1319.6
1324.4
1339.0
1345.8
1349.8
1353.0
1368.3
1375.4
1386.7
1390.8
1397.2
1430.2
1454.6
1505.8
1509.8
1519.9
1530.4
1546.7
1559.2
1590.9
1600.8
1640.7
1681.8
1689.1
1692.0
1702.6
1703.7
1715.1
1733.0
1746.4
1775.2
1798.9
2457.8
2650.3
2652.1
2662.3
2671.7
2704.9
2738.0
2738.8
2741.6
2743.8
2745.9
2746.5
2755.5
2756.0
2760.0
2761.5
2762.7
2765.5
2770.5
2778.2
2802.3
       
[FR-COORD]
C -2.55189 -3.18683 -0.556335
C 0.0861715 -3.18683 -0.556335
C 1.48362 -0.93617 -0.556335
N 0.201067 1.28293 -0.500021
C -2.45834 1.37307 -0.555768
C -3.8609 -0.856424 -0.568619
N -3.37656 3.89321 -0.510982
C -6.53562 -0.748143 -0.660837
N -8.7192 -0.675766 -0.745686
C -3.90947 -5.58792 -0.555768
C -3.31061 -7.42889 -2.37161
C -4.58013 -9.71244 -2.40505
C -6.46305 -10.1626 -0.579768
C -7.06852 -8.36128 1.2527
C -5.78407 -6.06942 1.24212
O -7.54454 -12.4656 -0.819763
C 4.24943 -0.957713 -0.521186
C 5.48323 -2.23611 1.44092
C 8.10371 -2.23101 1.55695
C 9.51401 -0.972453 -0.295553
C 8.27473 0.256625 -2.27599
C 5.64839 0.267396 -2.39523
C 12.3225 -0.911604 -0.149666
C -9.55445 -13.0756 0.859069
C -1.46681 5.41501 -0.565784
C -0.661215 8.2702 -0.000188973
C 1.57546 7.68344 1.73231
C 2.55151 5.21338 1.43751
C 1.16558 3.97088 -0.70997
C 2.59025 9.31729 3.49184
C 4.60375 8.46559 4.98699
C 5.55617 6.03125 4.70202
C 4.53364 4.37528 2.9064
O 2.23347 4.29327 -2.98709
O -2.22477 9.92465 0.281002
O 0.867573 8.70767 -2.58609
H 1.11078 -4.98245 -0.558981
H -0.227712 9.45449 -3.83218
H -1.85401 -7.04301 -3.78304
H -4.16382 -11.156 -3.80893
H -8.51964 -8.71239 2.6596
H -6.24706 -4.64211 2.66243
H 4.38946 -3.21064 2.89052
H 9.0635 -3.20214 3.09424
H 9.36076 1.23645 -3.72541
H 4.68936 1.25667 -3.9482
H 12.9907 0.966973 0.457503
H 13.2067 -1.299 -1.9912
H 13.0973 -2.29167 1.19261
H -10.0951 -14.9753 0.213161
H -11.1346 -11.759 0.631735
H -8.88814 -13.14 2.81531
H 1.83133 11.2233 3.70273
H 5.42899 9.72982 6.38463
H 7.12105 5.39706 5.87478
H 5.31599 2.4899 2.67623
H 1.85911 6.52844 -3.34557

[FR-NORM-COORD]
Vibration 1
0.00151178 0.000188973 -0.000188973
-0.00321253 -0.00680301 0.000188973
-0.00510226 0.000377945 0.000377945
-0.0100155 -0.0113384 0.0105825
0.0128501 -0.00604712 -0.0020787
-0.000944863 0.00359048 -0.00113384
0.000566918 0.0170075 0.00566918
-0.000188973 0.000566918 -0.000566918
-0.000377945 0.000377945 0
-0.00113384 -0.000377945 -0.000188973
-0.000377945 0.000377945 0
-0.000377945 -0.000188973 0.000188973
0.000188973 0.000566918 0
-0.000188973 -0.000377945 0
0.000377945 0 0
-0.000377945 -0.000566918 0
-0.00151178 -0.000377945 0.000188973
-0.000566918 0 -0.000188973
-0.000377945 0 0.000188973
-0.000944863 0 -0.000566918
-0.000188973 -0.000944863 0.000188973
-0.00170075 0.00113384 0.000944863
0.000377945 0 0.000188973
0 0 -0.000188973
0.00831479 0.00453534 0.0113384
-0.100344 -0.104691 0.150611
-0.00548021 0.000944863 0.00642507
0.00340151 0.00188973 -0.000188973
0.0478101 0.0287238 -0.0772898
0 0.00264562 -0.000566918
0.00245664 0.000566918 0.000188973
-0.00075589 0.00264562 0.00113384
-0.00188973 0.00113384 -0.00226767
-0.02759 0.00245664 0.0451645
0.0126612 0.00170075 -0.020976
0.0810692 0.00340151 -0.102045
0.000377945 -0.00340151 -0.00075589
0.0147399 -0.214484 -0.183492
0.000944863 0.000566918 0.000944863
0.000188973 -0.000188973 0.00075589
0.000188973 0 -0.000377945
0.000566918 -0.000377945 -0.000377945
0.000188973 -0.000188973 -0.00113384
-0.000566918 0.000188973 -0.00132281
-0.00340151 0.00132281 0.00075589
-0.013606 0.0279679 0.0153068
-0.000377945 -0.00075589 -0.000188973
-0.00113384 -0.00075589 0
-0.00132281 -0.000377945 -0.000377945
-0.000377945 0.000188973 0.000566918
0.000377945 0.000377945 0.000188973
0.000188973 0.000566918 -0.000188973
0.00642507 0.00264562 0.00736993
0.00075589 0.00188973 -0.000944863
-0.000566918 -0.000377945 0.00113384
0.00075589 0.000944863 -0.00736993
-0.344875 0.816362 0.151556
Vibration 2
-0.00434637 0.00888171 -0.0291018
-0.00434637 0.00680301 -0.0258892
-0.00245664 0.00566918 -0.0215429
-0.00113384 0.00642507 -0.020976
-0.00075589 0.00869274 -0.0300466
-0.00245664 0.0096376 -0.0364717
0.000944863 0.00925966 -0.0258892
-0.0020787 0.0111494 -0.0474321
-0.00170075 0.0120942 -0.0570697
-0.00472431 0.00907068 -0.0166296
-0.00680301 -0.00188973 -0.00604712
0.000377945 -0.00604712 0.0158737
0.0102045 0.00075589 0.02759
0.00850377 0.0141729 0.013984
0.000944863 0.0183303 -0.00850377
0.0211649 -0.00718096 0.0532903
-0.00264562 0.0020787 -0.0164406
-0.00812582 -0.00831479 -0.0196532
-0.00831479 -0.0156847 -0.0168186
-0.00283459 -0.0128501 -0.0105825
0.00264562 -0.00132281 -0.00680301
0.00264562 0.0062361 -0.0096376
-0.00283459 -0.0224877 -0.00831479
0.041574 -0.00812582 0.0774788
0.00245664 0.00793685 -0.0100155
0.00188973 0.0041574 0.0103935
-0.00869274 -0.00793685 0.0202201
-0.00888171 -0.00680301 0.0111494
0.0020787 0.00642507 -0.00377945
-0.0168186 -0.0187083 0.0351489
-0.0239995 -0.0283459 0.0393063
-0.0241885 -0.027401 0.0300466
-0.0170075 -0.0168186 0.0162516
0.0149288 0.0179524 0.0041574
0.00188973 0.0041574 0.0103935
0.0181414 0.0173855 0.0221098
-0.00585815 0.00585815 -0.0247554
0.0264562 0.0260782 0.0200311
-0.0134171 -0.0075589 -0.0143619
-0.000566918 -0.0153068 0.0249444
0.0134171 0.020976 0.020787
0.000188973 0.0283459 -0.0188973
-0.0120942 -0.0107714 -0.0243775
-0.0124722 -0.0241885 -0.0194642
0.00680301 0.00170075 -0.00170075
0.00699199 0.0149288 -0.00680301
0.00302356 -0.0262672 -0.00302356
-0.00283459 -0.020598 -0.00869274
-0.00831479 -0.0285349 -0.0113384
0.0565028 -0.0217318 0.10488
0.0260782 -0.0272121 0.0738883
0.0574477 0.0224877 0.0731324
-0.0162516 -0.0194642 0.0419519
-0.0289128 -0.0362827 0.0493218
-0.0291018 -0.034393 0.0328812
-0.0170075 -0.0158737 0.00907068
0.0196532 0.020598 0.0149288
Vibration 3
0.0120942 -0.0132281 -0.00226767
0.0120942 -0.0117163 -0.00396842
0.0102045 -0.0105825 -0.00812582
0.00831479 -0.0113384 -0.00736993
0.00850377 -0.0130391 -0.00982658
0.0103935 -0.013984 -0.0096376
0.0062361 -0.013795 -0.0100155
0.0105825 -0.0154958 -0.0168186
0.0107714 -0.0160627 -0.0236216
0.00831479 -0.0111494 0.00736993
0.0020787 -0.020787 0.0154958
-0.0132281 -0.0124722 0.0185193
-0.0228657 0.00604712 0.0132281
-0.0122832 0.0132281 0.0096376
0.00359048 0.0041574 0.00699199
-0.0432747 0.0158737 0.0124722
0.0103935 -0.00170075 -0.0130391
0.020598 0.0122832 -0.0105825
0.020598 0.0379835 -0.00831479
0.0102045 0.0493218 -0.00869274
0.000566918 0.0279679 -0.0156847
0.000566918 0.00226767 -0.0181414
0.00907068 0.0854156 -0.000944863
-0.0634948 0.0419519 -0.00188973
0.00529123 -0.0122832 -0.00472431
0.00132281 -0.0128501 0.00283459
-0.00321253 -0.0147399 0.00812582
-0.000188973 -0.0132281 0.00566918
0.00680301 -0.0102045 -0.000944863
-0.00944863 -0.0173855 0.0141729
-0.0120942 -0.0181414 0.0171965
-0.00907068 -0.0166296 0.0147399
-0.00321253 -0.0141729 0.00907068
0.0126612 -0.00453534 0.00283459
-0.00075589 -0.0147399 0.00151178
0.00869274 -0.0062361 0.00831479
0.0134171 -0.0109604 -0.00151178
0.0117163 -0.00472431 0.00661404
0.00850377 -0.034393 0.0183303
-0.0190862 -0.0190862 0.0238105
-0.0164406 0.0258892 0.00850377
0.0113384 0.0100155 0.00359048
0.0285349 0.00491329 -0.00982658
0.0285349 0.0506447 -0.00548021
-0.00774788 0.0338261 -0.0179524
-0.00736993 -0.0132281 -0.0228657
-0.0171965 0.0959981 -0.00434637
0.0194642 0.0920297 0.00264562
0.0228657 0.0993996 0.00510226
-0.0848487 0.0496998 -0.00680301
-0.0444086 0.0633058 -0.0117163
-0.0774788 0.0319364 0.00245664
-0.0117163 -0.0185193 0.0158737
-0.0162516 -0.0200311 0.0213539
-0.0107714 -0.0173855 0.0168186
-0.000566918 -0.0126612 0.00718096
0.0122832 -0.00396842 0.00661404
Vibration 4
-0.0113384 0 -0.0175745
-0.0113384 -0.00453534 -0.0236216
-0.00793685 -0.00680301 -0.0160627
-0.00472431 -0.00472431 -0.00831479
-0.00453534 -0.000188973 -0.00245664
-0.00793685 0.00188973 -0.00604712
0 0.00151178 0.00736993
-0.00812582 0.00529123 0.00359048
-0.00831479 0.0075589 0.0115273
-0.0141729 0.00151178 -0.0183303
-0.0306136 0.00831479 -0.0304246
-0.0270231 0.0062361 -0.0238105
-0.00585815 -0.00302356 -0.00434637
0.00680301 -0.0075589 0.00434637
0.0020787 -0.00491329 -0.00302356
0 -0.00661404 0.0041574
-0.00812582 -0.00604712 -0.00774788
-0.0151178 -0.00812582 -0.00472431
-0.0160627 0.0111494 0.0171965
-0.0102045 0.0321253 0.0359048
-0.00264562 0.0264562 0.02759
-0.00170075 0.00680301 0.00548021
-0.0124722 0.0629279 0.0661404
0.0332592 -0.0239995 0.0376055
0.00264562 -0.00188973 0.00642507
0.00982658 -0.00396842 0.0075589
0.0181414 -0.00907068 -0.00491329
0.0119053 -0.0107714 -0.0111494
-0.000566918 -0.00604712 -0.00585815
0.0309915 -0.0111494 -0.0103935
0.0368497 -0.0151178 -0.020787
0.0304246 -0.0170075 -0.0260782
0.0181414 -0.0143619 -0.0213539
-0.0100155 -0.00434637 -0.0103935
0.013984 -0.0020787 0.0179524
-0.00245664 -0.00302356 0
-0.0143619 -0.0062361 -0.0326923
-0.00793685 -0.000944863 0.00604712
-0.0453534 0.0149288 -0.0438416
-0.0393063 0.0109604 -0.0323143
0.020409 -0.0130391 0.0168186
0.0120942 -0.00812582 0.00359048
-0.0198421 -0.0226767 -0.0181414
-0.0215429 0.0113384 0.020787
0.00226767 0.0389284 0.0396842
0.00377945 0.00377945 0
-0.0396842 0.0706758 0.0719986
0.0115273 0.0714316 0.075778
-0.0115273 0.0723765 0.0754001
0.0406291 -0.0296687 0.048188
0.0173855 -0.0389284 0.0614161
0.0648176 -0.0160627 0.0270231
0.0357158 -0.0096376 -0.0062361
0.0461093 -0.0171965 -0.0243775
0.034771 -0.020787 -0.0338261
0.013795 -0.0156847 -0.0247554
-0.00888171 -0.00359048 -0.00642507
Vibration 5
0.00548021 0.000377945 0.00434637
0.00491329 -0.00170075 -0.00491329
0.00548021 -0.00170075 -0.00472431
0.00566918 -0.00170075 -0.00529123
0.00566918 -0.000377945 -0.00170075
0.00529123 0 0.0130391
0.00699199 0.000188973 -0.0156847
0.0041574 -0.00283459 0.0404401
0.00302356 -0.00661404 0.0668963
0.00188973 0.00170075 0.00113384
-0.0389284 0.0266451 -0.0370386
-0.0466762 0.0309915 -0.0442196
-0.0102045 0.0100155 -0.0115273
0.0323143 -0.0149288 0.0268341
0.0368497 -0.0171965 0.0321253
-0.0222988 0.0168186 -0.0236216
0.00548021 -0.00132281 -0.00434637
0.00529123 0.00831479 0.0020787
0.00510226 0.00907068 0.00264562
0.00548021 0.000377945 -0.00321253
0.00585815 -0.00944863 -0.00944863
0.00566918 -0.0102045 -0.0100155
0.00548021 0.00132281 -0.00283459
0.0217318 -0.00869274 0.0196532
0.0075589 -0.00075589 -0.0232436
0.00604712 0.00075589 -0.0264562
-0.0109604 -0.000377945 -0.00472431
-0.0096376 -0.00113384 0.00434637
0.0075589 -0.00245664 -0.00661404
-0.0281569 -0.0020787 0.00680301
-0.0434637 -0.0041574 0.0260782
-0.0417629 -0.00434637 0.034204
-0.0249444 -0.00321253 0.0236216
0.0253223 -0.00736993 0.00170075
0.00566918 0.00359048 -0.0445975
0.0294797 -0.00510226 -0.0128501
0.00377945 -0.00226767 -0.0117163
0.0423299 -0.00359048 -0.0232436
-0.0653845 0.0427078 -0.0595264
-0.0803134 0.0500777 -0.0738883
0.0602823 -0.0309915 0.0514005
0.0678412 -0.034204 0.0591484
0.00491329 0.0147399 0.00604712
0.00491329 0.0168186 0.0075589
0.00585815 -0.0164406 -0.013984
0.00604712 -0.0181414 -0.0149288
0.00453534 0.0020787 -0.00434637
0.00604712 -0.000188973 -0.0020787
0.00548021 0.00283459 -0.00113384
0.00642507 0.000188973 0.0062361
0.0151178 -0.00661404 0.0791795
0.0721875 -0.0364717 0.00151178
-0.0296687 -0.0020787 0.000566918
-0.0561249 -0.00510226 0.034582
-0.0527234 -0.00510226 0.048566
-0.0241885 -0.00377945 0.0298577
0.0311805 -0.00661404 -0.00321253
Vibration 6
-0.0190862 0.00604712 0.0124722
-0.0183303 -0.00188973 0.0179524
-0.0122832 -0.00661404 0.013606
-0.00585815 -0.00283459 0.0122832
-0.00491329 0.0062361 0.00888171
-0.0119053 0.0100155 0.0100155
0.00491329 0.0102045 -0.000566918
-0.0113384 0.0200311 0.00642507
-0.0109604 0.0294797 0.00377945
-0.0196532 0.0062361 0.00302356
0.00680301 0.00302356 0.0141729
0.0211649 -0.00453534 0.0102045
0.00718096 -0.0096376 -0.00529123
-0.0251334 -0.00377945 -0.0217318
-0.0379835 0.00377945 -0.0171965
0.0300466 -0.020409 -0.00283459
-0.0120942 -0.00774788 0.00245664
0 0.0211649 0.0134171
0.000566918 0.0357158 0.00396842
-0.0120942 0.0198421 -0.0166296
-0.0243775 -0.0153068 -0.0306136
-0.0247554 -0.0289128 -0.020976
-0.0122832 0.0423299 -0.0230547
0.02759 -0.034393 -0.0109604
0.0107714 0.00302356 -0.0041574
0.0215429 0.0020787 -0.0111494
0.0117163 -0.00283459 -0.000377945
0.00264562 -0.0075589 0.0096376
0.00548021 -0.0075589 0.0075589
0.0113384 -0.00283459 0
0.00188973 -0.00736993 0.0100155
-0.00642507 -0.0117163 0.0190862
-0.0062361 -0.0119053 0.0192752
0.0156847 -0.0190862 0.0109604
0.0279679 0.0103935 -0.0241885
0.0349599 -0.0120942 -0.0062361
-0.0232436 -0.00453534 0.0234326
0.0436527 -0.0111494 -0.0132281
0.0179524 0.0062361 0.0262672
0.0440306 -0.00736993 0.0200311
-0.0393063 -0.00566918 -0.0368497
-0.061983 0.00642507 -0.027779
0.00944863 0.034393 0.0291018
0.0107714 0.0606602 0.0132281
-0.034204 -0.0302356 -0.047999
-0.0351489 -0.0548021 -0.0308025
-0.0272121 0.0474321 -0.0217318
-0.0120942 0.0525344 -0.0249444
0.00151178 0.0470542 -0.0260782
0.0559359 -0.0459203 -0.00075589
0.0124722 -0.0559359 -0.0304246
0.0156847 -0.0119053 -0.0062361
0.0181414 0.00075589 -0.0075589
0.00151178 -0.00736993 0.0100155
-0.0130391 -0.0149288 0.0260782
-0.0124722 -0.0151178 0.0258892
0.02759 -0.0177634 0.00377945
Vibration 7
-0.00245664 0.00491329 -0.00264562
-0.00188973 0.00548021 -0.0224877
-0.000377945 0.0041574 -0.0281569
0.000566918 0.00491329 -0.02759
0.000566918 0.00510226 -0.0102045
-0.00113384 0.00585815 0.0105825
0.00113384 0.00548021 -0.0100155
-0.00226767 0.0122832 0.0521564
-0.00359048 0.0196532 0.0914627
0.00264562 0.00245664 0.00453534
0.0285349 -0.0111494 0.0260782
0.0368497 -0.0156847 0.0298577
0.0149288 -0.00585815 0.00982658
-0.0100155 0.00604712 -0.0103935
-0.0145509 0.00869274 -0.0115273
0.0230547 -0.0100155 0.013984
-0.000566918 0.000188973 -0.0222988
-0.0120942 -0.0232436 -0.0296687
-0.0130391 -0.0245664 -0.0126612
-0.00132281 -0.000944863 0.0122832
0.0111494 0.0196532 0.0173855
0.0117163 0.0192752 -0.000566918
-0.00264562 0.00226767 0.034771
-0.0200311 0.0122832 -0.0294797
0.00075589 0.00548021 -0.0183303
0.00264562 0.0041574 -0.0100155
-0.00359048 -0.0062361 -0.00510226
-0.00377945 -0.00491329 -0.0151178
0.000188973 0.00491329 -0.0239995
-0.0111494 -0.0179524 0.0102045
-0.0187083 -0.0285349 0.0143619
-0.0188973 -0.027401 0.00396842
-0.0115273 -0.0156847 -0.0107714
0.00264562 0.0124722 -0.0211649
0.00359048 0.00472431 -0.00831479
0.0096376 0.0130391 -0.00321253
-0.0020787 0.00529123 -0.0296687
0.013795 0.020598 -0.00264562
0.0423299 -0.0179524 0.0383614
0.0583925 -0.0258892 0.0468652
-0.0247554 0.0126612 -0.0238105
-0.0319364 0.0153068 -0.0238105
-0.020976 -0.0400622 -0.0476211
-0.0228657 -0.0430858 -0.0181414
0.0202201 0.0360938 0.0353379
0.0219208 0.034204 0.00226767
-0.00925966 0.00302356 0.0400622
0.0117163 0.00340151 0.041385
-0.0113384 0.00321253 0.0404401
-0.0160627 0.0113384 -0.0298577
-0.00736993 0.0198421 -0.0740773
-0.0655735 0.020976 -0.013606
-0.0109604 -0.0187083 0.0185193
-0.0243775 -0.0376055 0.0258892
-0.0245664 -0.0353379 0.00718096
-0.0122832 -0.0151178 -0.0179524
0.00566918 0.0153068 -0.0117163
Vibration 8
-0.00302356 0.00566918 -0.00925966
-0.00321253 0.00604712 -0.0109604
-0.0062361 0.00699199 -0.0111494
-0.00642507 0.00604712 -0.0160627
-0.00642507 0.00604712 -0.0143619
-0.00491329 0.00453534 -0.0107714
-0.0041574 0.00680301 -0.00888171
-0.00529123 -0.00226767 -0.00302356
-0.00585815 -0.0107714 0.00434637
0.00396842 0.00151178 -0.000944863
-0.00396842 0.00680301 -0.00888171
0.00529123 0.00170075 -0.00075589
0.0215429 -0.00680301 0.013795
0.034771 -0.0145509 0.0257003
0.0253223 -0.00925966 0.0179524
0.0249444 -0.00907068 0.0175745
-0.00680301 0.00793685 -0.00170075
-0.0166296 0.0519675 0.0328812
-0.0170075 0.0493218 0.0400622
-0.0100155 -0.00434637 0.00888171
-0.00170075 -0.0449755 -0.0219208
-0.00170075 -0.0330702 -0.0241885
-0.00982658 -0.0183303 0.00982658
-0.0260782 0.0219208 -0.0321253
-0.00264562 0.00548021 -0.00340151
-0.00132281 0.00113384 0.0115273
-0.00113384 -0.00718096 0.00812582
0.00170075 -0.00377945 -0.00869274
-0.00302356 0.00491329 -0.0111494
0 -0.0160627 0.0156847
0.00699199 -0.0198421 0.00396842
0.013606 -0.0149288 -0.0158737
0.0107714 -0.00604712 -0.0222988
-0.00359048 0.00925966 -0.0105825
0.00113384 0.00226767 0.0177634
0.0020787 0.0096376 0.0126612
-0.00188973 0.00661404 -0.00850377
0.00510226 0.0198421 0.0164406
-0.0183303 0.0153068 -0.0215429
-0.00188973 0.00548021 -0.00661404
0.0527234 -0.0251334 0.041574
0.034582 -0.013606 0.0251334
-0.0238105 0.089384 0.0527234
-0.0230547 0.0876833 0.0680301
0.00529123 -0.0850377 -0.0434637
0.00170075 -0.0542351 -0.0389284
0.00113384 -0.0103935 -0.0268341
-0.0102045 -0.0606602 0.0187083
-0.0194642 0.00359048 0.0379835
-0.0504557 0.0370386 -0.0559359
0.00510226 0.0548021 -0.0578256
-0.0695419 -0.00377945 -0.0181414
-0.00340151 -0.0188973 0.0292908
0.00793685 -0.0266451 0.00944863
0.020409 -0.0179524 -0.0268341
0.0171965 -0.00113384 -0.0366607
-0.00075589 0.0119053 -0.000377945
Vibration 9
0.0096376 -0.00907068 -0.0300466
0.0102045 -0.00548021 -0.0377945
0.00793685 -0.00396842 -0.0156847
0.00793685 -0.00434637 0
0.00850377 -0.00850377 0.00113384
0.00944863 -0.00869274 -0.00548021
0.00283459 -0.0111494 0.00850377
0.00869274 -0.000377945 0.0221098
0.00793685 0.0111494 0.0515895
0.00396842 -0.00548021 -0.0323143
0.0107714 -0.0247554 -0.0102045
-0.000188973 -0.0194642 -0.00113384
-0.0187083 0.00472431 -0.0141729
-0.0315584 0.0272121 -0.0402512
-0.0185193 0.0190862 -0.047999
-0.0251334 0.0062361 0.00264562
0.00831479 0.00075589 -0.00491329
0.00188973 0.0319364 0.0188973
0.00170075 0.0313695 0.0247554
0.00699199 -0.00453534 0.00434637
0.0122832 -0.0304246 -0.0153068
0.0122832 -0.0236216 -0.0177634
0.00736993 -0.0154958 0.00434637
0.0119053 0.00264562 0.0461093
0 -0.00793685 0.00869274
-0.0126612 -0.00774788 0.00869274
-0.00907068 0.00132281 0.00699199
0.000944863 0.00491329 0.00661404
0.00434637 -0.00132281 0.00718096
-0.013606 0.00774788 0.00359048
-0.00529123 0.0192752 -0.00113384
0.00642507 0.0239995 -0.00283459
0.00982658 0.0171965 0.00132281
0.00642507 0.00170075 0.00850377
-0.0188973 -0.013606 0.00982658
-0.0153068 -0.0041574 0.00718096
0.0130391 -0.00377945 -0.055369
-0.0179524 -0.00774788 0.00774788
0.0258892 -0.0451645 -0.000188973
0.00718096 -0.034393 0.0164406
-0.0508336 0.0502667 -0.0542351
-0.0249444 0.0323143 -0.0629279
-0.00283459 0.0559359 0.0313695
-0.00264562 0.0574477 0.0438416
0.0168186 -0.0555579 -0.0287238
0.0145509 -0.0366607 -0.0268341
0.0154958 -0.0130391 -0.0122832
0.0062361 -0.0362827 0.00831479
0.000566918 -0.00699199 0.0170075
0.0311805 -0.0166296 0.0865495
-0.0115273 -0.0251334 0.0478101
0.0425188 0.0453534 0.0370386
-0.0228657 0.0041574 0.00359048
-0.00812582 0.0243775 -0.0041574
0.0132281 0.0330702 -0.00718096
0.0194642 0.0211649 0
-0.00321253 -0.00151178 0.00718096
Vibration 10
-0.00548021 -0.00226767 -0.0364717
-0.00548021 -0.00359048 -0.0476211
-0.00491329 -0.0041574 -0.0147399
-0.00396842 -0.00434637 0.020409
-0.00377945 -0.00151178 0.0124722
-0.00453534 -0.00132281 -0.00831479
0 0 0.0166296
-0.00472431 0.000377945 0.000944863
-0.00510226 0.00132281 0.0103935
-0.00359048 -0.00377945 -0.034204
-0.0154958 -0.00831479 -0.0332592
-0.0041574 -0.0154958 -0.00831479
0.0168186 -0.0158737 0.0128501
0.0262672 -0.00925966 0.0096376
0.0162516 -0.0041574 -0.013606
0.0302356 -0.0258892 0.0449755
-0.00491329 -0.00359048 -0.0126612
-0.00793685 -0.0119053 -0.0166296
-0.00812582 -0.0115273 -0.0126612
-0.00604712 -0.00113384 -0.00396842
-0.00321253 0.00548021 -0.00151178
-0.00302356 0.00321253 -0.00642507
-0.00642507 0.00302356 0.00283459
-0.0376055 0.0294797 -0.0156847
0.00188973 -0.0020787 0.0173855
0.00642507 0.00245664 -0.00188973
0.00831479 0.0132281 -0.00151178
-0.00680301 0.00283459 0.0306136
0 -0.00566918 0.0308025
0.0236216 0.0330702 -0.0289128
0.0162516 0.0393063 -0.0154958
-0.00869274 0.0243775 0.0266451
-0.0198421 0.00566918 0.0498888
0.013795 -0.013795 0.0359048
0.0075589 0.00510226 -0.0122832
0.00321253 -0.0147399 -0.00699199
-0.00585815 -0.00377945 -0.0772898
-0.000188973 -0.0330702 -0.0149288
-0.0334482 -0.00718096 -0.0514005
-0.0115273 -0.0200311 -0.00566918
0.0438416 -0.0102045 0.02759
0.0253223 -0.000566918 -0.0141729
-0.00982658 -0.0192752 -0.0230547
-0.0100155 -0.0188973 -0.0162516
-0.00132281 0.0126612 0.00472431
-0.00075589 0.00585815 -0.00585815
-0.0103935 0.00585815 -0.00151178
-0.00170075 -0.00170075 0.00604712
-0.00774788 0.00850377 0.00907068
-0.0538572 0.034204 -0.0154958
-0.00491329 0.0580146 -0.0784236
-0.101667 0.034771 0.0062361
0.0393063 0.0425188 -0.0582036
0.0285349 0.0546131 -0.0366607
-0.0179524 0.027779 0.0408181
-0.0377945 -0.00566918 0.0786126
0.0107714 -0.0170075 0.0179524
Vibration 11
0.000944863 -0.000188973 -0.00302356
0.000944863 0.000188973 -0.00321253
0 0.000566918 -0.00170075
-0.000188973 0.000377945 -0.00170075
-0.000188973 0 -0.00226767
0.000377945 -0.000566918 -0.00188973
-0.000377945 -0.000188973 -0.00170075
0.000188973 -0.00170075 0.000944863
0 -0.00340151 0.00434637
0.00132281 -0.000377945 -0.00170075
-0.00075589 -0.000566918 -0.0020787
-0.000566918 -0.00075589 0
0.00151178 -0.000188973 0.00226767
0.00359048 0.000188973 0.00264562
0.00377945 0 0.000944863
0.0020787 -0.00075589 0.00529123
-0.000188973 0.00132281 -0.000377945
-0.00075589 0.0107714 0.00680301
-0.00132281 0.00869274 0.00510226
-0.00075589 -0.00359048 -0.00396842
0.000188973 -0.0103935 -0.00774788
-0.000566918 -0.0075589 -0.00566918
-0.00151178 -0.00377945 0.00982658
-0.00604712 0.00585815 -0.0020787
-0.000377945 -0.000188973 -0.00075589
-0.00151178 -0.000566918 0.000944863
-0.00132281 -0.000377945 0.00075589
0.000188973 0.000377945 -0.000944863
0 0.000377945 -0.000944863
-0.00170075 -0.000566918 0.000944863
0.000377945 0.00075589 -0.00113384
0.00283459 0.00188973 -0.00359048
0.00264562 0.00188973 -0.00340151
0.000566918 0.00075589 -0.00075589
-0.00170075 -0.000944863 0.00113384
-0.000377945 0.000377945 0.00132281
0.00151178 0.000566918 -0.00377945
0.000188973 0.00151178 0.00151178
-0.00245664 -0.00075589 -0.00396842
-0.00226767 -0.00113384 0
0.00529123 0.000377945 0.00453534
0.00585815 0.000188973 0.00151178
-0.00170075 0.0200311 0.0122832
0 0.0179524 0.00982658
-0.00132281 -0.0168186 -0.0130391
-0.000566918 -0.0119053 -0.00831479
-0.0379835 -0.156091 0.524021
0.0185193 0.511738 -0.0878723
0.0115273 -0.355835 -0.35867
-0.000566918 0.0020787 0.0041574
-0.00548021 0.00377945 -0.0170075
-0.0168186 0.0154958 0.00188973
-0.00340151 -0.00132281 0.00245664
0.000188973 0.00075589 -0.00113384
0.00453534 0.00302356 -0.00548021
0.00453534 0.00283459 -0.00529123
0.000377945 0.00075589 0
Vibration 12
-0.00774788 -0.00302356 0.00170075
-0.00680301 -0.00869274 0.00907068
0.00283459 -0.013795 0.00982658
0.0124722 -0.00699199 0.0062361
0.0130391 -0.00566918 0
0.00264562 0.000944863 -0.000377945
0.00925966 -0.00850377 -0.00793685
0.00377945 0.0325033 -0.00245664
0.00529123 0.0750221 -0.00377945
-0.0154958 0.000944863 -0.00491329
-0.0272121 0.00869274 -0.0166296
-0.0188973 0.00396842 -0.0111494
0.00075589 -0.00907068 0.00604712
0.00264562 -0.0111494 0.00869274
-0.0062361 -0.00566918 0.00264562
0.0245664 -0.0224877 0.0239995
0.00283459 -0.0230547 0.00434637
0.0102045 -0.0313695 -0.00604712
0.0107714 -0.0241885 -0.0109604
0.00377945 -0.00510226 -0.00321253
-0.00340151 -0.00718096 -0.000188973
-0.00302356 -0.0173855 0.00302356
0.00283459 0.0236216 0.00264562
-0.0154958 -0.00377945 -0.0171965
0.00812582 -0.00831479 -0.00566918
-0.0132281 -0.0113384 0.00132281
-0.0245664 -0.00529123 0.0185193
0.0111494 0.0109604 -0.0041574
0.0120942 -0.00340151 0.00226767
-0.0557469 -0.00642507 0.0372276
-0.0283459 0.0190862 0.0145509
0.0300466 0.0468652 -0.0298577
0.048377 0.0419519 -0.0362827
0.0117163 -0.00472431 0.000377945
-0.0232436 -0.0175745 -0.0124722
0.0132281 -0.00434637 0.0198421
-0.0128501 -0.0120942 0.0115273
0.0308025 0.0170075 0.0175745
-0.0410071 0.0175745 -0.0285349
-0.0260782 0.00907068 -0.0185193
0.0134171 -0.0187083 0.0179524
-0.0041574 -0.00774788 0.00510226
0.0160627 -0.0421409 -0.00888171
0.0162516 -0.0306136 -0.0185193
-0.00888171 0.000944863 0.00113384
-0.00812582 -0.0188973 0.00529123
-0.0183303 0.0326923 -0.00170075
0.0109604 0.02759 0.00585815
0.0143619 0.0360938 0.00869274
-0.0062361 -0.00718096 -0.0149288
-0.00642507 -0.000944863 -0.062361
-0.0599043 0.00907068 -0.00151178
-0.0952422 -0.0249444 0.0627389
-0.0495108 0.0183303 0.02759
0.0595264 0.0710537 -0.0561249
0.0873053 0.0610381 -0.0653845
0.0170075 -0.00982658 0.00548021
Vibration 13
0.00831479 -0.000566918 -0.00075589
0.00907068 -0.0020787 0.00264562
0.0109604 -0.00302356 0.0096376
0.00982658 -0.00302356 0.0170075
0.0109604 -0.00434637 0.041574
0.00869274 -0.00170075 0.020409
0.00340151 -0.00793685 0.0663294
0.0105825 0.0262672 0
0.0132281 0.0723765 -0.0287238
0.00188973 0.0041574 -0.0162516
-0.0109604 0.00850377 -0.0241885
-0.0105825 0.0075589 -0.0166296
0.00529123 0.00453534 -0.00132281
0.0062361 0.00850377 -0.00472431
0.00510226 0.00831479 -0.0117163
0.0224877 -0.00642507 0.0258892
0.0122832 -0.000566918 0.00888171
0.0164406 0.00944863 0.0132281
0.0168186 0.0126612 0.0111494
0.0147399 0.00245664 0.00264562
0.0107714 -0.00359048 0.00132281
0.0105825 -0.00340151 0.00585815
0.0156847 -0.00340151 -0.00642507
-0.00529123 0.0200311 0.00264562
-0.00226767 -0.00396842 0.0241885
0.00321253 0.00075589 -0.0111494
0.0222988 0.00566918 -0.0340151
0.0181414 0.0041574 -0.034771
0 -0.00132281 -0.0175745
0.00113384 -0.0122832 -0.00510226
-0.0359048 -0.0364717 0.0309915
-0.0421409 -0.0387394 0.0304246
-0.0113384 -0.0164406 -0.00718096
-0.0474321 -0.0164406 -0.0398732
0.00831479 0.00245664 0.0115273
-0.0653845 -0.0213539 -0.0531013
0.00718096 -0.00302356 -0.00434637
-0.104124 -0.0453534 -0.034393
-0.020598 0.0109604 -0.0332592
-0.0196532 0.00850377 -0.0202201
0.0111494 0.00944863 0.000566918
0.0096376 0.0105825 -0.0124722
0.0190862 0.013984 0.0183303
0.0187083 0.0211649 0.0153068
0.00831479 -0.00869274 -0.0041574
0.00793685 -0.00434637 0.00661404
0.0217318 -0.00604712 -0.00529123
0.00888171 -0.00188973 -0.0100155
0.0170075 -0.0075589 -0.0115273
0.00869274 0.0075589 0.02759
-0.00302356 0.013984 -0.048377
-0.0394953 0.0555579 0.0154958
0.00510226 -0.0107714 -0.00226767
-0.0614161 -0.0540462 0.061983
-0.0721875 -0.0580146 0.0600933
-0.0158737 -0.0179524 -0.00680301
-0.0695419 -0.0173855 -0.0519675
Vibration 14
-0.00151178 -0.00075589 0.0119053
-0.000944863 -0.00132281 -0.00170075
0.00340151 -0.00396842 -0.0194642
0.00869274 -0.000944863 -0.0190862
0.00944863 -0.00264562 -0.0134171
0.00359048 0.000566918 -0.00170075
0.00396842 -0.00510226 -0.0117163
0.00491329 0.0294797 -0.0062361
0.00699199 0.0746442 -0.0147399
0.00359048 -0.00340151 0.0266451
0.0117163 -0.00151178 0.0264562
0.0107714 0.000188973 0.0153068
0.00226767 -0.00264562 0.0062361
0.00982658 -0.0143619 0.0202201
0.00699199 -0.0117163 0.027401
-0.0185193 0.0111494 -0.0306136
0.00302356 -0.0154958 -0.0266451
-0.00585815 -0.0120942 -0.0185193
-0.00680301 -0.0102045 -0.00566918
0.000566918 -0.0143619 -0.00283459
0.0100155 -0.0383614 -0.0238105
0.00982658 -0.0325033 -0.0321253
-0.00188973 0.0171965 0.034204
0.00888171 -0.0202201 -0.0102045
0.00170075 -0.00302356 -0.000377945
-0.0126612 -0.00472431 0.00982658
0.00151178 0.00472431 -0.00491329
-0.00774788 -0.00132281 0.0115273
0.00585815 0.00321253 -0.000377945
0.0162516 0.0171965 -0.0253223
0.0096376 0.0175745 -0.0160627
-0.0160627 0.00359048 0.0170075
-0.0232436 -0.00585815 0.0294797
0.0187083 0.0230547 0.0096376
-0.0230547 -0.0181414 0.0334482
-0.0374166 0.0096376 -0.00226767
-0.00264562 -0.00245664 0.00321253
-0.0572587 -0.0156847 0.000377945
0.0168186 0.00113384 0.0323143
0.0132281 0.00434637 0.0117163
0.013795 -0.0232436 0.0221098
0.00529123 -0.0154958 0.0302356
-0.0124722 -0.00699199 -0.0202201
-0.013606 -0.00132281 0.0041574
0.0171965 -0.0540462 -0.0289128
0.0143619 -0.0353379 -0.0362827
-0.0338261 0.0266451 0.041574
0.0289128 0.0258892 0.0476211
-0.0041574 0.0289128 0.0474321
-0.0238105 0.00566918 -0.0593374
0.0164406 0.00170075 0.0646286
0.0498888 -0.0878723 -0.0264562
0.0302356 0.0249444 -0.0453534
0.0217318 0.0272121 -0.0321253
-0.0279679 0.000944863 0.0313695
-0.0393063 -0.0151178 0.0493218
-0.00850377 0.020787 0.00850377
Vibration 15
0.000944863 0.00472431 0.00396842
-0.000188973 0.00642507 -0.0298577
-0.00359048 0.00793685 -0.0241885
-0.00245664 0.00642507 0.0226767
-0.00434637 0.00642507 0.0474321
-0.00132281 0.00472431 0.0292908
-0.000188973 0.0075589 0.0646286
-0.000944863 -0.0156847 0.00075589
-0.000566918 -0.048188 -0.041196
0.00680301 0.00245664 0.00812582
0.0168186 -0.00151178 0.0151178
0.0160627 -0.000566918 0.0120942
0.00396842 0.00510226 0.000944863
0.00321253 0.00340151 0.00264562
0.00434637 0.00245664 0.00566918
-0.0120942 0.0149288 -0.0164406
-0.00377945 -0.00491329 -0.0404401
-0.020787 -0.0122832 -0.034204
-0.0226767 -0.0177634 -0.0153068
-0.00869274 -0.0160627 -0.00340151
0.00869274 -0.0332592 -0.0249444
0.00850377 -0.0226767 -0.041385
-0.0120942 0.013984 0.0472432
0.00888171 0.00132281 0.00359048
-0.000566918 0.00718096 0.0219208
0.00736993 0.0119053 -0.00585815
-0.000944863 0.0107714 0.00377945
0.0096376 0.0160627 -0.00718096
-0.00151178 0.00472431 0.00510226
-0.0222988 0.00188973 0.0243775
-0.0221098 0.00302356 0.0245664
0.00359048 0.0160627 -0.00170075
0.0196532 0.0224877 -0.0170075
-0.0130391 -0.0187083 -0.00340151