[Molden Format]
[FREQ]
-1148.3
18.3
25.4
27.3
28.5
31.1
37.1
43.4
46.7
63.9
68.3
83.7
97.2
108.2
119.2
131.2
136.7
150.0
158.6
181.8
190.4
207.1
224.9
239.2
249.6
252.4
257.4
284.1
292.7
321.0
331.4
345.4
355.4
356.7
363.4
379.0
394.1
418.6
449.9
486.1
491.3
498.4
511.8
522.6
536.4
544.7
558.4
568.6
570.7
580.6
612.1
615.5
629.7
635.6
651.3
659.3
667.8
694.4
708.6
715.0
735.7
751.9
763.5
769.7
806.5
827.4
840.1
848.5
862.8
882.3
882.9
900.5
901.4
905.8
944.6
951.5
975.1
1002.3
1008.6
1009.1
1010.3
1015.8
1020.8
1021.5
1032.7
1033.3
1049.8
1071.2
1071.7
1079.2
1087.7
1108.6
1127.6
1131.9
1154.7
1179.4
1180.0
1180.4
1184.5
1193.4
1215.0
1243.2
1249.1
1261.2
1270.3
1273.8
1274.4
1284.4
1288.1
1296.7
1299.1
1302.3
1320.7
1322.8
1328.8
1336.6
1348.7
1351.0
1365.4
1380.2
1392.5
1399.6
1417.2
1426.4
1487.9
1497.6
1520.6
1527.8
1545.0
1550.5
1562.9
1598.7
1607.0
1647.5
1675.8
1690.5
1701.3
1702.2
1708.5
1711.1
1712.0
1731.9
1883.3
1978.0
2448.1
2651.8
2655.6
2667.3
2675.7
2723.6
2734.5
2743.0
2745.2
2745.7
2746.1
2746.9
2750.1
2759.8
2764.1
2767.5
2768.3
2771.3
2772.1
2773.7
2780.3
       
[FR-COORD]
C -2.08569 -3.1651 -0.84244
C 0.555957 -3.1651 -0.84244
C 1.84362 -0.849432 -0.84244
N 0.620775 1.3693 -0.840361
C -1.99045 1.41975 -0.820141
C -3.41058 -0.87551 -0.829968
N -3.08743 3.72011 -0.645719
C -6.07528 -0.77252 -0.863038
N -8.26434 -0.697498 -0.884203
C -3.42532 -5.5934 -0.855857
C -2.92341 -7.34725 -2.77676
C -4.16685 -9.65045 -2.82042
C -5.92221 -10.1913 -0.902155
C -6.4366 -8.47485 1.03066
C -5.17596 -6.16448 1.03179
O -6.9901 -12.5121 -1.1618
C 4.62662 -0.719797 -0.777055
C 5.94697 -2.01785 1.10266
C 8.56556 -1.82245 1.23456
C 9.87609 -0.342796 -0.517029
C 8.54874 0.933903 -2.4094
C 5.9292 0.749654 -2.53979
C 12.684 -0.152123 -0.387583
C -8.91006 -13.1835 0.591295
C -1.55959 5.81525 -0.896675
C -1.62252 7.51998 1.53484
C 0.585248 6.9952 3.03093
C 2.38824 5.82168 1.40917
C 1.37459 5.55901 -1.23248
C 1.12155 7.39506 5.56052
C 3.47369 6.60308 6.47817
C 5.22944 5.45375 4.88967
C 4.70296 5.06144 2.32002
O 2.50162 5.66767 -3.18305
O -3.23181 9.25758 1.51764
O -2.92511 7.49428 -2.67642
H 1.60003 -4.92784 -0.839983
H -1.73458 8.47674 -3.72106
H -1.55789 -6.88219 -4.25169
H -3.8197 -11.0305 -4.30007
H -7.79569 -8.89362 2.50483
H -5.56902 -4.78913 2.51919
H 4.92311 -3.16964 2.47006
H 9.59301 -2.831 2.69966
H 9.55918 2.0753 -3.78777
H 4.88022 1.76841 -4.00187
H 13.4067 -0.365662 1.54561
H 13.3889 1.66447 -1.10303
H 13.5735 -1.64312 -1.53654
H -9.4817 -15.0617 -0.0822031
H -10.5006 -11.8641 0.488116
H -8.14623 -13.3048 2.50861
H -0.25927 8.2736 6.81246
H 3.92609 6.8803 8.46881
H 7.04565 4.83203 5.64669
H 6.07641 4.1351 1.08055
H -4.00414 9.00984 -0.764394

[FR-NORM-COORD]
Vibration 1
-0.000944863 0.0020787 -0.00075589
0.00113384 -0.000188973 0.000188973
-0.00188973 0.00075589 -0.000944863
0.00566918 0.00226767 0.00075589
-0.00302356 0.0111494 0.0126612
-0.00075589 -0.00321253 0.00170075
-0.00699199 -0.0171965 0.00510226
0.00075589 0 -0.000188973
0 0 0.000377945
0 0 0
0 0.000188973 0
-0.000188973 -0.000188973 0.000188973
0.000188973 0.000566918 0
0 -0.000188973 0
0.000188973 0 -0.000188973
-0.000188973 -0.000377945 0
0.000188973 0 0.000188973
0 0.000188973 0
0.000188973 0.000188973 0.000188973
0 0 0
0 0.000188973 0.000188973
0.000188973 -0.000188973 0
0.000188973 0 0.000188973
0 0 -0.000188973
-0.0300466 0.0432747 -0.0786126
0.0376055 -0.0468652 -0.0211649
-0.0124722 0.00680301 -0.00264562
0.000566918 -0.00377945 -0.000188973
-0.00585815 -0.00132281 -0.00718096
0.00264562 0.00170075 0.00566918
-0.00377945 0.0020787 0.000944863
0.000188973 -0.00075589 -0.00170075
-0.000188973 0.000188973 0.00075589
0.00377945 -0.000944863 0.00170075
-0.0349599 0.0283459 -0.00982658
0.0602823 -0.0377945 0.00510226
-0.000944863 0.00170075 -0.00075589
0.0300466 -0.190295 -0.101667
0.000188973 0.00113384 0.000377945
-0.000377945 0.000188973 0.000188973
0 0.000188973 -0.000566918
-0.000188973 0.000377945 -0.00132281
-0.000377945 -0.00151178 -0.0020787
0.000188973 -0.000944863 -0.00113384
0.000377945 -0.00132281 -0.000566918
-0.00151178 -0.0020787 -0.00132281
0.000188973 -0.000566918 -0.000377945
0.000188973 -0.000566918 -0.000566918
-0.000377945 -0.000377945 -0.000188973
-0.000377945 0.000188973 0.000377945
0.000377945 0.000377945 0
0 0.000377945 -0.000188973
0.0020787 -0.00264562 0.00925966
0.000377945 -0.00132281 0.00151178
0.00170075 -0.000944863 0.00226767
-0.000566918 -0.00302356 -0.00377945
-0.296498 0.43048 1.14196
Vibration 2
0.00188973 0.00812582 -0.0192752
0.00188973 0.0075589 -0.0173855
0.00264562 0.00718096 -0.0198421
0.00302356 0.00736993 -0.0221098
0.00283459 0.00812582 -0.0264562
0.00245664 0.00850377 -0.0287238
0.00321253 0.00793685 -0.0251334
0.00264562 0.00907068 -0.0381725
0.00264562 0.0096376 -0.0476211
0.00170075 0.00831479 -0.00566918
0.00283459 -0.00585815 0.00774788
0.00510226 -0.0075589 0.0260782
0.0062361 0.00548021 0.0306136
0.00377945 0.020598 0.0166296
0.00151178 0.0217318 -0.00170075
0.0096376 0.00170075 0.0498888
0.00264562 0.00604712 -0.0188973
0.00245664 -0.0041574 -0.0255113
0.00264562 -0.0062361 -0.0251334
0.00321253 0.00170075 -0.0179524
0.00359048 0.0120942 -0.0111494
0.00340151 0.0141729 -0.0115273
0.00340151 -0.000944863 -0.0175745
0.013795 0.0117163 0.0583925
0.00680301 0.00793685 -0.00736993
-0.00529123 -0.00585815 0.00226767
-0.0168186 -0.0213539 0.013984
-0.00850377 -0.0147399 0.0183303
0.00869274 0.00566918 0.00944863
-0.0340151 -0.041385 0.020787
-0.0428968 -0.0548021 0.0317474
-0.034393 -0.0476211 0.0359048
-0.0170075 -0.027401 0.0292908
0.0211649 0.0202201 0.0173855
-0.00113384 -0.0020787 0.00132281
0.0196532 0.0187083 -0.0062361
0.00132281 0.00718096 -0.0130391
0.02759 0.0215429 0.00529123
0.00226767 -0.0160627 0.00396842
0.00642507 -0.0188973 0.0368497
0.00377945 0.0309915 0.0196532
-0.000188973 0.0332592 -0.0126612
0.00226767 -0.0103935 -0.0311805
0.00226767 -0.0143619 -0.0304246
0.00377945 0.0188973 -0.00529123
0.00377945 0.0221098 -0.00642507
0.00302356 -0.00566918 -0.0179524
0.00491329 0 -0.013606
0.0020787 0.00075589 -0.020787
0.0181414 0.00434637 0.0754001
0.0100155 0.00642507 0.0487549
0.0164406 0.0306136 0.0585815
-0.0406291 -0.0470542 0.0171965
-0.0565028 -0.0710537 0.0372276
-0.041574 -0.0580146 0.0444086
-0.0107714 -0.0221098 0.0323143
0.0128501 0.0113384 -0.00585815
Vibration 3
0 0.00283459 0.00396842
-0.000188973 0.00188973 -0.00548021
0.00075589 0.00151178 -0.00170075
0.000944863 0.00170075 0.00434637
0.00075589 0.00245664 0.00831479
0.000377945 0.00283459 0.0156847
0.0020787 0.00359048 0.00264562
0 0.0020787 0.0360938
-0.000188973 0.00113384 0.0557469
0 0.00264562 -0.000566918
-0.0222988 0.020409 -0.0224877
-0.020976 0.0198421 -0.02759
0.00359048 0.00151178 -0.0103935
0.0255113 -0.0158737 0.0107714
0.0230547 -0.0145509 0.0154958
0.00283459 0.00245664 -0.0175745
0.000944863 -0.00245664 -0.00510226
0.00170075 -0.0168186 -0.0154958
0.00264562 -0.0266451 -0.0211649
0.00321253 -0.0217318 -0.0164406
0.00245664 -0.00566918 -0.00510226
0.00151178 0.00377945 0.000377945
0.00434637 -0.0338261 -0.0243775
0.0300466 -0.0179524 0.00434637
0.00566918 0.000188973 -0.00604712
-0.00188973 0.0181414 -0.0198421
-0.0128501 0.0194642 -0.00283459
-0.00850377 -0.000944863 0.0164406
0.00736993 -0.00888171 0.0109604
-0.0266451 0.034771 -0.00245664
-0.0366607 0.0285349 0.0179524
-0.0334482 0.0062361 0.0374166
-0.0192752 -0.00907068 0.0368497
0.0181414 -0.00925966 0.0170075
0.0062361 0.0257003 -0.0425188
0.0196532 -0.0103935 -0.0262672
-0.000944863 0.00151178 -0.0153068
0.0279679 -0.0255113 -0.0311805
-0.0404401 0.034582 -0.034771
-0.0385504 0.0334482 -0.0442196
0.0440306 -0.0300466 0.0238105
0.0396842 -0.0272121 0.0315584
0.00132281 -0.0211649 -0.0192752
0.00302356 -0.0385504 -0.0296687
0.00264562 -0.00075589 -0.000944863
0.00151178 0.0149288 0.00812582
0.0103935 -0.0563138 -0.0291018
0.00850377 -0.0291018 -0.00831479
-0.00548021 -0.0255113 -0.0427078
0.0241885 -0.0128501 -0.00491329
0.0257003 -0.020409 0.0400622
0.0583925 -0.034204 -0.00793685
-0.0298577 0.0512116 -0.0173855
-0.0474321 0.041196 0.0185193
-0.0421409 0.00113384 0.0536682
-0.0171965 -0.0262672 0.0519675
0.0173855 0.0111494 -0.0440306
Vibration 4
-0.0096376 0.00774788 -0.0175745
-0.00982658 0.00434637 -0.0177634
-0.00680301 0.00283459 -0.0096376
-0.00340151 0.00453534 -0.00699199
-0.00340151 0.00736993 -0.00850377
-0.00661404 0.00925966 -0.0126612
-0.00188973 0.00774788 -0.00321253
-0.00661404 0.0115273 -0.00944863
-0.00661404 0.0130391 -0.00642507
-0.00982658 0.00793685 -0.0170075
-0.0234326 0.0145509 -0.0266451
-0.0143619 0.00944863 -0.0181414
0.00944863 -0.00226767 0.000377945
0.0192752 -0.00661404 0.00680301
0.00888171 -0.00075589 -0.00245664
0.020976 -0.00869274 0.0102045
-0.00680301 -0.0041574 0.00132281
-0.0188973 -0.0202201 -0.00132281
-0.0187083 -0.0302356 0.0109604
-0.00661404 -0.0238105 0.0258892
0.00548021 -0.00699199 0.0285349
0.00548021 0.00264562 0.0160627
-0.00642507 -0.0332592 0.0364717
0.0572587 -0.0296687 0.0417629
-0.0041574 0.00925966 0.000944863
-0.00075589 0.000188973 0.00793685
0.00529123 0.000377945 -0.000944863
0.00283459 0.0105825 -0.0107714
-0.00510226 0.0151178 -0.00793685
0.0124722 -0.00680301 -0.00132281
0.0177634 -0.00359048 -0.0117163
0.0156847 0.00718096 -0.0215429
0.00831479 0.0145509 -0.0211649
-0.0105825 0.0145509 -0.0107714
-0.00566918 -0.00434637 0.0196532
-0.0117163 0.0145509 0.0113384
-0.0122832 0.00283459 -0.0226767
-0.0166296 0.0232436 0.0141729
-0.0404401 0.0230547 -0.0394953
-0.0241885 0.013795 -0.0243775
0.0349599 -0.0143619 0.0190862
0.0168186 -0.00396842 0.00245664
-0.0285349 -0.0251334 -0.0124722
-0.0287238 -0.0430858 0.00907068
0.0156847 -0.0020787 0.0400622
0.0147399 0.0149288 0.0179524
-0.00510226 -0.130769 0.0251334
-0.00642507 0.00264562 0.127179
-0.00774788 0.0238105 -0.0385504
0.0657625 -0.0353379 0.0502667
0.0417629 -0.0462983 0.0685971
0.089951 -0.0226767 0.0291018
0.0141729 -0.0149288 0.0062361
0.0234326 -0.00944863 -0.0122832
0.0200311 0.00944863 -0.0298577
0.00699199 0.0228657 -0.0287238
-0.0117163 0.00283459 0.0211649
Vibration 5
0.00226767 -0.00453534 -0.00850377
0.00226767 -0.00491329 -0.0154958
0.00132281 -0.00453534 -0.013795
0.000188973 -0.00510226 -0.0119053
0.000188973 -0.00472431 -0.00793685
0.00132281 -0.00529123 -0.00245664
0.0020787 -0.00396842 -0.00774788
0.000944863 -0.00812582 0.0119053
0.00075589 -0.0109604 0.0251334
-0.00075589 -0.00302356 -0.00529123
-0.0391173 0.0126612 -0.0291018
-0.048188 0.0173855 -0.0279679
-0.0166296 0.00642507 -0.00226767
0.0236216 -0.0096376 0.0228657
0.0308025 -0.013606 0.020787
-0.0308025 0.0132281 -0.00510226
0.000944863 0.00226767 -0.00831479
-0.00188973 0.0247554 0.00907068
-0.00396842 0.0444086 0.0239995
-0.00359048 0.0408181 0.0211649
-0.000377945 0.013984 0.000944863
0.00151178 -0.00491329 -0.013795
-0.0062361 0.0663294 0.041574
-0.000566918 0.00340151 0.0241885
0.00661404 -0.00642507 -0.00642507
0.00925966 -0.00850377 -0.00529123
0.00661404 -0.0156847 -0.00396842
0.00566918 -0.0170075 -0.0041574
0.00661404 -0.0130391 -0.00529123
0.00510226 -0.020787 -0.00302356
0.00283459 -0.0264562 -0.0020787
0.00264562 -0.0260782 -0.00245664
0.00396842 -0.0213539 -0.00359048
0.00774788 -0.0111494 -0.00472431
0.013984 -0.0041574 -0.00548021
0.0113384 -0.00283459 -0.0062361
0.00226767 -0.00491329 -0.020787
0.0145509 -0.00529123 -0.00529123
-0.0625499 0.0211649 -0.047999
-0.0789905 0.0294797 -0.0464873
0.048566 -0.0185193 0.0432747
0.0610381 -0.0247554 0.0389284
-0.00245664 0.0281569 0.0113384
-0.00604712 0.0633058 0.0383614
0.000188973 0.00925966 -0.00245664
0.00359048 -0.0234326 -0.027779
-0.0215429 0.108848 0.0519675
-0.0147399 0.0585815 0.0134171
0.0158737 0.0519675 0.0772898
-0.0213539 0.0128501 0.0156847
0.00321253 0.0113384 0.0680301
0.0353379 -0.0196532 0.00850377
0.00548021 -0.0202201 -0.00283459
0.00151178 -0.0308025 -0.00113384
0.00113384 -0.0298577 -0.00226767
0.00396842 -0.020976 -0.00377945
0.0151178 -0.000944863 -0.00680301
Vibration 6
-0.0198421 0.0105825 0.00283459
-0.0192752 0.00869274 0.00604712
-0.0171965 0.00699199 0.00548021
-0.0160627 0.00736993 0.00566918
-0.0166296 0.0105825 0.00566918
-0.0183303 0.0115273 0.00377945
-0.00850377 0.0143619 0.00453534
-0.0181414 0.013984 0.00170075
-0.0179524 0.0162516 0
-0.0153068 0.00831479 -0.00302356
0.00907068 0.00529123 0.00566918
0.0262672 -0.00377945 0.00510226
0.0179524 -0.0102045 -0.0041574
-0.0113384 -0.00491329 -0.0166296
-0.027779 0.00434637 -0.0158737
0.041574 -0.0213539 -0.000377945
-0.0171965 0.00548021 0.00321253
-0.0185193 0.0336371 0.0232436
-0.0185193 0.034393 0.020409
-0.0175745 0.00566918 -0.00321253
-0.0166296 -0.0232436 -0.0234326
-0.0168186 -0.0226767 -0.0200311
-0.0175745 0.0062361 -0.0062361
0.0447865 -0.0366607 -0.00283459
0.00604712 0.00491329 0.00245664
0.0198421 0.0119053 -0.00340151
0.0149288 -0.000944863 -0.000566918
0.00680301 -0.0198421 0.00396842
0.00566918 -0.020787 0.00396842
0.0175745 0.00434637 -0.00188973
0.0115273 -0.00888171 0.00132281
0.00396842 -0.0266451 0.00566918
0.00170075 -0.0321253 0.00718096
0.00604712 -0.0249444 0.00359048
0.0374166 0.0283459 -0.0105825
0.0217318 0.0102045 -0.00359048
-0.0202201 0.00812582 0.00831479
0.0317474 -0.00661404 -0.00869274
0.0160627 0.0096376 0.0134171
0.0468652 -0.00680301 0.0128501
-0.020598 -0.00831479 -0.0260782
-0.0495108 0.00736993 -0.0243775
-0.0196532 0.055369 0.0408181
-0.0190862 0.0568808 0.0362827
-0.0158737 -0.0455424 -0.041385
-0.0164406 -0.0432747 -0.034393
-0.0175745 0.0381725 -0.00264562
-0.0164406 -0.0062361 -0.0366607
-0.0183303 -0.0134171 0.0187083
0.0716206 -0.047999 0.00604712
0.0279679 -0.0580146 -0.0156847
0.0396842 -0.0156847 0.000566918
0.0236216 0.0188973 -0.00548021
0.0132281 -0.00510226 0.000377945
-0.000188973 -0.0359048 0.00793685
-0.00434637 -0.0451645 0.0103935
0.0368497 0.0285349 -0.0107714
Vibration 7
0.000566918 -0.0020787 0.00377945
0.00075589 -0.00132281 -0.000188973
0.000188973 -0.00113384 -0.00302356
-0.000566918 -0.00170075 -0.00302356
-0.000566918 -0.00188973 0.000566918
0 -0.00226767 0.00548021
0.000377945 -0.00151178 -0.000566918
0 -0.00188973 0.0128501
-0.000188973 -0.00113384 0.0200311
0.00113384 -0.00245664 0.00491329
0.0105825 -0.0075589 0.0119053
0.00925966 -0.00680301 0.0102045
-0.00226767 -0.000944863 0.00132281
-0.0107714 0.00340151 -0.00491329
-0.00869274 0.00226767 -0.00283459
-0.00377945 0 -0.000188973
0.000188973 0.00113384 -0.00359048
0.000566918 0.00718096 -0.000566918
0.00075589 0.0134171 0.00283459
-0.00113384 0.013984 0.00321253
-0.00226767 0.00718096 -0.00188973
-0.000944863 0.000566918 -0.00566918
-0.0020787 0.0317474 -0.00340151
-0.0202201 0.00907068 -0.0147399
0.00302356 -0.00321253 -0.00302356
0.00472431 0 -0.00566918
0.0020787 -0.00321253 -0.00283459
0.00132281 -0.00869274 0.000377945
0.00340151 -0.00888171 -0.000566918
0.000188973 -0.0020787 -0.00245664
-0.00264562 -0.00661404 0.000944863
-0.00340151 -0.0117163 0.00377945
-0.00132281 -0.0126612 0.00359048
0.00472431 -0.00774788 0
0.00944863 0.00434637 -0.00982658
0.00736993 -0.00396842 -0.00642507
0.00132281 -0.000944863 -0.000377945
0.0102045 -0.00944863 -0.00869274
0.0188973 -0.0119053 0.0181414
0.0168186 -0.0105825 0.0154958
-0.0190862 0.0075589 -0.0111494
-0.0151178 0.00510226 -0.00718096
0.0020787 0.00680301 0.000188973
-0.000566918 0.0173855 0.00642507
-0.00132281 0.00699199 -0.00151178
-0.00170075 -0.00510226 -0.00888171
0.0445975 -0.361316 -0.0648176
-0.0542351 0.196909 0.363016
0.00245664 0.289506 -0.334482
-0.0190862 0.00869274 -0.0149288
-0.0160627 0.0128501 -0.0313695
-0.0366607 0.0119053 -0.00812582
0.00075589 0.0020787 -0.00491329
-0.00434637 -0.00604712 0.00113384
-0.00548021 -0.0151178 0.00642507
-0.00170075 -0.0166296 0.00585815
0.0107714 0.00264562 -0.0103935
Vibration 8
-0.0041574 0.00321253 -0.00661404
-0.00359048 0.00170075 -0.02759
-0.000566918 -0.000188973 -0.0279679
0.00226767 0.00170075 -0.0245664
0.00264562 0.00359048 -0.00850377
-0.00075589 0.00510226 0.0119053
0.00359048 0.0041574 -0.00869274
-0.000944863 0.0132281 0.0612271
-0.00113384 0.0224877 0.109982
-0.0020787 0.00226767 -0.00245664
0.0245664 -0.0120942 0.0171965
0.0319364 -0.0158737 0.020409
0.00925966 -0.00529123 0.00283459
-0.0188973 0.00907068 -0.0173855
-0.0234326 0.0115273 -0.0192752
0.0192752 -0.0103935 0.00869274
-0.000566918 -0.00396842 -0.0211649
-0.0096376 -0.027779 -0.0306136
-0.0113384 -0.0241885 -0.0105825
-0.00283459 0.0041574 0.0194642
0.00736993 0.0238105 0.0257003
0.00850377 0.0188973 0.00491329
-0.00472431 0.0122832 0.048566
-0.0100155 0.00396842 -0.0179524
0.00170075 0.00510226 -0.0119053
0.00113384 0.00113384 -0.00888171
-0.000944863 -0.0062361 -0.00850377
0.000188973 -0.000566918 -0.0117163
0.00151178 0.00925966 -0.0130391
-0.00491329 -0.020787 -0.00548021
-0.00774788 -0.0292908 -0.00529123
-0.00604712 -0.0219208 -0.00869274
-0.00188973 -0.00680301 -0.0119053
0.00151178 0.0164406 -0.0126612
0.00151178 0.00132281 -0.00680301
-0.00113384 0.00529123 -0.00925966
-0.00510226 0.00075589 -0.0393063
-0.00245664 0.00661404 -0.00982658
0.0406291 -0.0202201 0.0292908
0.0542351 -0.0270231 0.0360938
-0.0362827 0.0177634 -0.0309915
-0.0438416 0.020598 -0.0325033
-0.0164406 -0.047999 -0.0525344
-0.0185193 -0.0417629 -0.0175745
0.013795 0.0434637 0.0468652
0.0164406 0.0338261 0.00944863
-0.0317474 0.0786126 0.0661404
0.00434637 -0.0119053 -0.00340151
0.0119053 -0.0260782 0.111305
0.00340151 -0.00302356 -0.0100155
-0.0096376 0.00132281 -0.0576366
-0.0428968 0.0228657 -0.00377945
-0.00604712 -0.0258892 -0.00302356
-0.0115273 -0.0419519 -0.00283459
-0.00812582 -0.0283459 -0.00888171
0 -0.00075589 -0.0141729
0.00151178 0.00377945 -0.00793685
Vibration 9
-0.00831479 -0.00907068 -0.020976
-0.00793685 -0.0126612 -0.0272121
-0.00434637 -0.0147399 -0.0160627
-0.00170075 -0.0128501 0.0020787
-0.00132281 -0.00907068 0.00491329
-0.00472431 -0.00680301 -0.0102045
0.00377945 -0.00736993 0.020976
-0.00434637 -0.00170075 -0.0179524
-0.0041574 0.00321253 -0.02759
-0.0119053 -0.00718096 -0.0190862
-0.00699199 -0.0181414 -0.00774788
-0.00566918 -0.0192752 0.00283459
-0.00982658 -0.00944863 0.00188973
-0.0179524 0.00321253 -0.0115273
-0.0187083 0.00359048 -0.0219208
-0.00510226 -0.0132281 0.0156847
-0.00434637 -0.0132281 -0.0183303
0.000377945 -0.0340151 -0.0359048
-0.00151178 -0.0171965 -0.0262672
-0.0075589 0.0213539 0.00170075
-0.0109604 0.0357158 0.013984
-0.00907068 0.0171965 0.00321253
-0.0102045 0.0478101 0.0198421
0.00113384 -0.0096376 0.0238105
0.00736993 -0.0109604 0.0164406
0.0107714 0.00302356 0.00585815
0.0117163 0.0134171 0.00812582
0.00812582 -0.00472431 0.0170075
0.00718096 -0.0171965 0.0183303
0.0177634 0.0425188 0.00226767
0.0192752 0.0517785 0.0062361
0.013795 0.0296687 0.0160627
0.00793685 0.000377945 0.0217318
0.00774788 -0.0187083 0.0185193
0.0153068 0.00774788 -0.00434637
0.0143619 -0.0154958 0.0062361
-0.0103935 -0.0141729 -0.0387394
0.0171965 -0.0266451 -0.000188973
-0.00359048 -0.0264562 -0.00718096
-0.000944863 -0.0279679 0.0120942
-0.0230547 0.0122832 -0.013606
-0.0241885 0.0122832 -0.0313695
0.00510226 -0.0616051 -0.0555579
0.00226767 -0.0325033 -0.0393063
-0.0156847 0.0625499 0.0328812
-0.0115273 0.027401 0.0120942
-0.0230547 0.0678412 0.0268341
-0.020787 0.0489439 0.0122832
0.0119053 0.0478101 0.0368497
0.0100155 -0.0177634 0.0393063
-0.00585815 -0.0185193 0.0154958
0.0041574 0.00944863 0.0238105
0.0213539 0.0585815 -0.00491329
0.0245664 0.0763449 0.00151178
0.0145509 0.0359048 0.0196532
0.00434637 -0.0154958 0.0294797
0.0145509 -0.00170075 0
Vibration 10
-0.00831479 0.0020787 0.0385504
-0.00793685 -0.00472431 0.0544241
-0.00188973 -0.00831479 0.034393
0.00283459 -0.00491329 0.0141729
0.00340151 0.00151178 0.00793685
-0.00283459 0.00491329 0.0158737
0.00642507 0.00434637 -0.0103935
-0.00226767 0.0111494 -0.00680301
-0.00188973 0.0166296 -0.0281569
-0.0122832 0.0041574 0.0279679
-0.00850377 0.0175745 0.0164406
-0.00642507 0.0171965 -0.00151178
-0.0075589 0.00226767 -0.00642507
-0.013795 -0.0100155 0.00264562
-0.0166296 -0.00793685 0.0196532
-0.0020787 0.00188973 -0.0247554
-0.00170075 -0.00944863 0.0202201
0.0175745 -0.0368497 -0.0124722
0.0177634 -0.0255113 -0.0260782
-0.00113384 0.0156847 -0.00529123
-0.0192752 0.0385504 0.0228657
-0.0183303 0.0228657 0.0340151
-0.00226767 0.0366607 -0.0134171
0.0247554 -0.0323143 -0.00888171
0.00680301 0.00302356 -0.0134171
0.00699199 0.00226767 -0.0117163
0.00434637 -0.00529123 -0.0102045
0.00680301 0.00302356 -0.013795
0.00642507 0.00680301 -0.0134171
-0.00151178 -0.0241885 -0.0062361
-0.00434637 -0.0328812 -0.00585815
0 -0.0192752 -0.0105825
0.00604712 0 -0.0147399
0.00491329 0.0020787 -0.0143619
0.00944863 0.0041574 -0.0124722
0.0062361 0.00321253 -0.0126612
-0.0132281 -0.00774788 0.0742662
0.0062361 0.00226767 -0.013795
-0.0062361 0.0285349 0.0219208
-0.00359048 0.02759 -0.0103935
-0.0170075 -0.020598 -0.00321253
-0.0224877 -0.0166296 0.0258892
0.0328812 -0.0661404 -0.0257003
0.0326923 -0.0472432 -0.0514005
-0.034393 0.0678412 0.0360938
-0.0317474 0.0362827 0.0523454
0.00321253 0.0489439 -0.013984
-0.0164406 0.0389284 -0.0215429
0.00604712 0.0389284 -0.0100155
0.0362827 -0.0325033 -0.0181414
0.0103935 -0.0476211 0.0198421
0.0472432 -0.0406291 -0.0183303
-0.0041574 -0.0326923 -0.00302356
-0.0102045 -0.0498888 -0.00226767
-0.00170075 -0.0249444 -0.0109604
0.0100155 0.0102045 -0.0179524
0.0100155 0.00491329 -0.0132281
Vibration 11
-0.000188973 0.00680301 0.00113384
-0.00075589 0.0156847 -0.00264562
-0.00831479 0.0198421 -0.00491329
-0.0171965 0.0145509 -0.00151178
-0.0187083 0.00699199 0.00283459
-0.0096376 0.00151178 -0.00132281
-0.0194642 0.00604712 0.0100155
-0.0102045 -0.0162516 -0.0141729
-0.0107714 -0.0364717 -0.0302356
0.0120942 0.000188973 0.00869274
0.00264562 0.0075589 -0.000377945
0.00944863 0.00377945 0.00340151
0.0258892 -0.00585815 0.0154958
0.0430858 -0.0170075 0.0300466
0.0359048 -0.0130391 0.0264562
0.0264562 -0.00642507 0.0158737
-0.00869274 0.0192752 -0.00283459
-0.0151178 -0.00850377 -0.0168186
-0.0149288 -0.020976 -0.0119053
-0.0075589 -0.00377945 0.00774788
-0.00075589 0.0249444 0.0224877
-0.00151178 0.034582 0.0158737
-0.00699199 -0.0183303 0.0143619
-0.0377945 0.0311805 -0.0400622
-0.0119053 0.00170075 0.00680301
0.0100155 0.0120942 -0.00132281
0.00850377 -0.000377945 -0.00340151
-0.00321253 -0.0187083 -0.00302356
-0.0120942 -0.0196532 0
0.0173855 0.0062361 -0.00604712
0.0132281 -0.00718096 -0.00793685
0.0020787 -0.0247554 -0.0075589
-0.00585815 -0.0292908 -0.00491329
-0.0198421 -0.013606 -0.00491329
0.034582 0.0353379 -0.00869274
-0.00132281 0.00491329 0.00283459
0.00472431 0.0188973 -0.0041574
0.00585815 -0.020976 -0.013984
-0.0122832 0.0170075 -0.0109604
0.000188973 0.0096376 -0.0041574
0.062172 -0.0292908 0.0440306
0.047999 -0.0202201 0.0360938
-0.020787 -0.0211649 -0.0315584
-0.0198421 -0.0438416 -0.0241885
0.00472431 0.0387394 0.0379835
0.00453534 0.0529123 0.0239995
-0.013606 -0.0177634 0.0170075
0.00548021 -0.0239995 0.0120942
-0.0120942 -0.0260782 0.020409
-0.061983 0.0464873 -0.062172
-0.00566918 0.0672742 -0.0776677
-0.0918407 0.00718096 -0.0200311
0.0266451 0.0217318 -0.00680301
0.0194642 -0.00340151 -0.00982658
-0.000377945 -0.034582 -0.00944863
-0.0126612 -0.0394953 -0.00472431
0.0266451 0.0336371 -0.00472431
Vibration 12
-0.0183303 0.00245664 0.00226767
-0.0179524 -0.0096376 0.00680301
-0.00774788 -0.0158737 0
0.00321253 -0.0096376 -0.00907068
0.00434637 0.00170075 -0.0151178
-0.00774788 0.00812582 -0.00718096
0.013606 0.00680301 -0.0253223
-0.00699199 0.0239995 -0.00359048
-0.00642507 0.041196 0.00151178
-0.0190862 0.00226767 0.0041574
-0.0292908 0.0143619 -0.00982658
-0.00888171 0.00359048 -0.00302356
0.0200311 -0.0188973 0.0170075
0.0266451 -0.0292908 0.027779
0.00661404 -0.0175745 0.0213539
0.0496998 -0.034582 0.0304246
-0.00774788 -0.020409 -0.00340151
-0.00321253 -0.0105825 -0.000377945
-0.00377945 0.000944863 -0.00151178
-0.0102045 0.00132281 -0.00585815
-0.0147399 -0.013795 -0.0130391
-0.013795 -0.0241885 -0.0113384
-0.0117163 0.0211649 -0.00283459
-0.0360938 0.00472431 -0.048566
0.0192752 0.00396842 -0.0107714
-0.00170075 -0.013606 0.00264562
-0.00226767 -0.00585815 0.00566918
0.00925966 0.0119053 0.00585815
0.0190862 0.013606 0.0020787
-0.00925966 -0.00736993 0.00736993
-0.00226767 0.013795 0.00793685
0.00982658 0.0328812 0.0075589
0.0147399 0.0296687 0.00680301
0.0317474 0.00907068 0.00944863
-0.0219208 -0.0326923 0.0117163
0.0232436 0.013984 -0.00585815
-0.0260782 -0.0143619 0.0145509
0.0253223 0.0410071 0.0224877
-0.0519675 0.0323143 -0.0253223
-0.0153068 0.0120942 -0.0124722
0.0498888 -0.048377 0.0438416
0.0124722 -0.0257003 0.0300466
0.00151178 -0.00982658 0.00340151
0.000566918 0.0103935 0.0020787
-0.0190862 -0.0164406 -0.0183303
-0.0181414 -0.0334482 -0.0143619
-0.0122832 0.0253223 -0.00226767
-0.0245664 0.0270231 -0.000944863
0.000566918 0.0285349 -0.00283459
-0.0376055 0.0105825 -0.0636838
-0.0109604 0.0292908 -0.120753
-0.117919 0.00170075 -0.0162516
-0.0188973 -0.0232436 0.00793685
-0.0062361 0.0154958 0.00869274
0.0156847 0.0500777 0.00774788
0.0224877 0.041196 0.00661404
-0.0075589 -0.020976 0.00302356
Vibration 13
0.0020787 -0.00510226 0
0.00245664 -0.0149288 -0.00585815
0.0103935 -0.0196532 -0.00132281
0.020976 -0.0128501 0.013984
0.0228657 -0.00472431 0.0289128
0.0134171 0.000566918 0.0132281
0.0175745 -0.00774788 0.0515895
0.0143619 0.0217318 -0.00566918
0.0154958 0.048188 -0.0304246
-0.00548021 -0.000944863 -0.00642507
-0.013606 0.00226767 -0.0113384
-0.00869274 -0.000566918 -0.0062361
0.0041574 -0.00661404 0.00377945
0.0062361 -0.00642507 0.0041574
0.00113384 -0.00359048 -0.000944863
0.0185193 -0.0149288 0.0166296
0.0117163 -0.0296687 -0.0105825
0.0132281 -0.0175745 -0.00340151
0.0120942 -0.0041574 0.00302356
0.00982658 -0.00529123 0.000566918
0.0096376 -0.0317474 -0.0173855
0.0105825 -0.041196 -0.0211649
0.00661404 0.0287238 0.0213539
-0.0107714 0.0020787 -0.00888171
-0.0120942 0.00604712 0.0164406
0 0.0360938 -0.00302356
0.00472431 0.0410071 -0.00774788
-0.00548021 0.0249444 -0.00869274
-0.0124722 0.0351489 -0.00529123
0.00491329 0.0257003 -0.00566918
-0.0132281 -0.0226767 -0.00075589
-0.0292908 -0.0504557 0.00170075
-0.0230547 -0.0221098 -0.00396842
-0.027779 0.0366607 -0.0130391
0.00188973 0.0385504 -0.0120942
-0.0476211 -0.0268341 0.0122832
-0.00396842 -0.0188973 -0.0151178
-0.0712427 -0.0447865 -0.0298577
-0.0226767 0.0062361 -0.0183303
-0.0134171 0.00113384 -0.00907068
0.013606 -0.0100155 0.00982658
0.00396842 -0.00396842 0.000188973
0.0149288 -0.0153068 -0.000377945
0.0124722 0.00982658 0.0122832
0.00888171 -0.0402512 -0.0249444
0.00925966 -0.0531013 -0.0281569
-0.00529123 0.0370386 0.0268341
-0.0115273 0.0385504 0.0279679
0.034771 0.041196 0.027401
-0.00510226 -0.00113384 -0.00491329
-0.00566918 0.00548021 -0.0423299
-0.0406291 0.0130391 0.00377945
0.0164406 0.0445975 -0.00642507
-0.0162516 -0.041574 0.00264562
-0.0470542 -0.0950532 0.00774788
-0.0353379 -0.041385 -0.00340151
-0.0243775 0.00736993 0.00812582
Vibration 14
0.00170075 -0.00377945 -0.0308025
0.0020787 -0.00453534 -0.0160627
0.00170075 -0.00434637 0.0304246
0.00075589 -0.00453534 0.0472432
0.00113384 -0.0041574 0.0185193
0.00170075 -0.00377945 -0.00585815
-0.00113384 -0.0041574 0.00680301
0.00151178 0.00132281 0.00566918
0.00170075 0.00925966 0.0238105
-0.00510226 0 -0.0453534
-0.0198421 -0.00604712 -0.0427078
-0.0170075 -0.00925966 -0.0213539
0.00113384 -0.00434637 -0.00377945
0.00132281 0.0109604 -0.0171965
-0.000566918 0.0107714 -0.0370386
0.0232436 -0.0198421 0.0406291
0.00151178 0.00585815 0.0400622
0.0160627 0.00850377 0.0308025
0.0177634 0.0103935 0.00982658
0.00396842 0.0103935 -0.000377945
-0.0128501 0.0230547 0.0200311
-0.0128501 0.0185193 0.0391173
0.00718096 -0.00774788 -0.0421409
-0.0156847 0.0247554 0.0158737
-0.00170075 -0.00491329 0.000566918
0.00226767 0.00340151 -0.00604712
-0.00113384 -0.00283459 -0.00283459
0.00377945 0.0105825 -0.00718096
-0.00170075 -0.00472431 -0.00264562
-0.0096376 -0.0255113 0.00226767
-0.00907068 -0.0260782 0.000944863
0.00245664 0.00283459 -0.00699199
0.00907068 0.0215429 -0.0111494
-0.00888171 -0.027401 -0.00812582
0.013984 0.0143619 -0.0158737
-0.00075589 -0.0111494 -0.00604712
0.00188973 -0.00453534 -0.0364717
-0.000377945 -0.0253223 -0.0187083
-0.0319364 -0.0111494 -0.055369
-0.0249444 -0.0162516 -0.0164406
0.00661404 0.020409 -0.00944863
0.00472431 0.0192752 -0.0430858
0.02759 0.00566918 0.0368497
0.0300466 0.00812582 -0.000188973
-0.0255113 0.0315584 0.0177634
-0.0245664 0.020787 0.0489439
0.034771 -0.00718096 -0.0525344
0.0096376 -0.0151178 -0.0587705
-0.0211649 -0.0177634 -0.0514005
0.00321253 0.00510226 0.05518
-0.0153068 0.0196532 -0.0572587
-0.0597153 0.0786126 0.0370386
-0.0162516 -0.0432747 0.00736993
-0.0171965 -0.0478101 0.00585815
0.00548021 0.00831479 -0.0096376
0.0166296 0.0400622 -0.0162516
0.0120942 0.00812582 -0.0128501
Vibration 15
-0.00396842 -0.00850377 0.00075589
-0.00510226 -0.00944863 -0.00831479
-0.00604712 -0.00831479 -0.0130391
-0.000944863 -0.00642507 -0.00925966
-0.00113384 -0.00340151 0.0020787
-0.000944863 -0.00453534 0.00245664
0.00642507 0.000944863 0.013606
-0.00170075 -0.0283459 -0.000188973
-0.00302356 -0.0710537 -0.0062361
-0.00377945 -0.0103935 0.00566918
-0.000377945 -0.013984 0.00925966
-0.000944863 -0.013606 0.00718096
-0.0075589 -0.0124722 0.00151178
-0.00661404 -0.0128501 0.00188973
-0.00529123 -0.0130391 0.00377945
-0.0151178 -0.00812582 -0.00774788
-0.00642507 -0.0102045 -0.0147399
-0.0117163 -0.00245664 -0.00585815
-0.0126612 0.000944863 0.00132281
-0.0096376 -0.00604712 -0.0020787
-0.00434637 -0.0181414 -0.013984
-0.0041574 -0.0175745 -0.0185193
-0.0107714 0.0020787 0.00982658
-0.00548021 -0.0175745 -0.00113384
0.00075589 0.0020787 0.0109604
0.0075589 0.0200311 0.00151178
-0.00585815 -0.000188973 0.0173855
0.0102045 0.0417629 0.00453534
0.00472431 0.0368497 0.00907068
-0.0260782 -0.0510226 0.0289128
-0.0151178 -0.0304246 0.020409
0.0171965 0.0489439 -0.000944863
0.02759 0.0793685 -0.00812582
-0.00245664 0.0531013 0.00604712
0.0636838 0.0727545 -0.0319364
0.0173855 0.00132281 -0.00226767
-0.0041574 -0.00888171 -0.0105825