[Molden Format]
[FREQ]
-518.3
17.5
20.9
24.0
29.0
31.2
37.8
44.3
47.2
49.4
54.5
59.4
76.4
84.7
101.3
105.2
114.2
128.6
139.4
154.2
170.0
175.9
187.3
214.3
223.4
241.7
245.8
261.5
294.3
298.0
317.1
324.1
343.5
352.2
355.8
358.4
362.0
378.7
384.1
416.8
468.0
484.0
489.2
500.7
519.6
521.4
538.2
544.8
551.0
568.6
595.6
597.4
610.3
612.8
616.0
623.7
641.5
665.7
670.2
696.6
714.8
729.8
769.8
786.7
790.4
795.1
813.6
825.0
870.0
879.7
882.9
893.5
896.8
902.6
929.3
953.0
954.5
969.7
1001.3
1009.9
1010.4
1018.2
1018.8
1030.2
1033.3
1042.0
1063.5
1070.1
1081.7
1104.9
1125.7
1136.6
1146.2
1174.9
1177.1
1185.3
1186.7
1191.6
1215.1
1246.2
1248.8
1262.4
1265.2
1275.8
1277.5
1280.8
1285.5
1295.4
1303.0
1303.5
1318.3
1336.2
1338.3
1342.0
1350.0
1353.8
1357.9
1362.6
1366.0
1380.0
1384.7
1396.1
1408.2
1427.9
1475.7
1501.7
1522.9
1530.2
1532.8
1568.7
1577.6
1592.9
1616.4
1653.5
1687.5
1694.1
1695.3
1702.8
1703.8
1706.5
1746.9
1870.1
1958.8
2455.3
2651.1
2653.1
2663.8
2671.6
2707.5
2732.4
2740.2
2740.5
2743.9
2744.4
2745.4
2751.7
2754.8
2759.2
2761.5
2763.3
2763.7
2767.8
2769.0
2777.9
2788.5
       
[FR-COORD]
C -2.6407 -3.15093 -0.747387
C 0.0168186 -3.15093 -0.747387
C 1.40388 -0.903289 -0.747387
N 0.0642507 1.27386 -0.831101
C -2.59214 1.39311 -0.675955
C -4.00093 -0.874376 -0.709214
N -2.88845 3.9174 -0.445597
C -6.66487 -0.777244 -0.730001
N -8.85167 -0.697687 -0.756457
C -3.95746 -5.58357 -0.762504
C -3.37184 -7.37655 -2.62634
C -4.60564 -9.68144 -2.67661
C -6.43716 -10.1964 -0.818818
C -7.02789 -8.44367 1.06259
C -5.77897 -6.13046 1.06807
O -7.4888 -12.5149 -1.08055
C 4.16118 -0.782347 -0.572965
C 5.40235 -2.34647 1.15954
C 8.00507 -2.166 1.46019
C 9.39137 -0.431613 0.02759
C 8.15001 1.10549 -1.72759
C 5.54672 0.936359 -2.02616
C 12.1736 -0.190106 0.369252
C -9.45543 -13.1824 0.625877
C -5.09413 5.23416 0.0589595
C 3.9671 8.46219 -1.30693
C 3.51735 7.1477 1.09755
C 1.9638 5.0142 1.34737
C 0.56276 3.99961 -0.780646
C 4.7623 8.16059 3.19893
C 4.53062 7.01995 5.55164
C 3.01449 4.87663 5.81601
C 1.7308 3.89907 3.74846
O 4.24395 6.82418 -3.28642
O 4.21125 10.694 -1.66731
O -5.56033 7.38014 0.248688
H 1.02461 -4.94579 -0.737749
H 0.830724 4.82069 -2.66017
H -1.95095 -6.93926 -4.05819
H -4.19727 -11.0899 -4.11677
H -8.44008 -8.8443 2.49463
H -6.2308 -4.73565 2.52316
H 4.32709 -3.68704 2.29847
H 8.9624 -3.37127 2.82438
H 9.22092 2.45967 -2.84876
H 4.59128 2.17337 -3.37977
H 12.6655 1.66277 1.18429
H 13.1861 -0.343552 -1.44111
H 12.9664 -1.6348 1.63102
H -9.98493 -15.0766 -0.0428968
H -11.0564 -11.8828 0.455613
H -8.74886 -13.2725 2.56681
H 5.91673 9.85983 2.97878
H 5.51101 7.79777 7.18153
H 2.82193 3.98071 7.66038
H 0.508903 2.26408 3.99431
H 4.57125 7.6961 -4.90705

[FR-NORM-COORD]
Vibration 1
-0.0128501 0.0154958 -0.000188973
0.0120942 -0.0141729 -0.00151178
0.0270231 -0.0445975 -0.013795
0.0336371 -0.0684081 -0.0315584
-0.0130391 0.020409 0.00774788
-0.00925966 -0.00585815 0.00699199
0.36963 0.0362827 -0.0160627
-0.00604712 0.00491329 0.00245664
-0.00604712 -0.00264562 -0.000566918
-0.000566918 0.00340151 0
0.000188973 0.00245664 0.00151178
0.000377945 0.00132281 0.00075589
0.000566918 0.00113384 0.000377945
0.000566918 0.000188973 0.000188973
-0.000566918 0.00132281 -0.000566918
0.000188973 -0.000377945 0
0.0175745 -0.00869274 -0.00113384
0.00888171 -0.00377945 0.00264562
0.00812582 0.00113384 0.00340151
0.00302356 0.00132281 0.00151178
0.00264562 0.00321253 0.00132281
0.00491329 -0.00264562 -0.00188973
0.00264562 0.000944863 -0.000377945
0 0.000566918 -0.000377945
-0.177823 -0.0597153 0.0294797
-0.00340151 0.0062361 -0.0141729
-0.0149288 -0.0185193 -0.00170075
-0.0693529 0.0436527 0.0374166
-0.365473 0.110738 0.0332592
0.00680301 -0.0160627 -0.0170075
-0.00491329 -0.0107714 -0.00434637
0.0075589 -0.00245664 0.00359048
-0.0234326 0.0130391 -0.00869274
-0.00869274 -0.0103935 0.00812582
-0.00170075 0 0.00566918
0.111872 0.013984 -0.0173855
-0.020598 -0.0255113 0.0041574
0.00925966 0.0272121 -0.00434637
0.000566918 0.00283459 0.00226767
0.000377945 0.00283459 0
-0.000566918 0.00113384 -0.00113384
-0.00604712 0.00642507 -0.00548021
0.00604712 -0.0115273 -0.0062361
0.0105825 -0.00151178 0.000566918
0.00680301 -0.00548021 -0.00434637
0.00736993 -0.0309915 -0.0219208
0.00699199 -0.00113384 -0.00188973
0.00151178 -0.00226767 -0.00170075
0.00321253 -0.00113384 -0.00170075
-0.00113384 0.000944863 0.000188973
0.00075589 0.00170075 -0.00075589
-0.000377945 0.000944863 -0.000377945
0.0134171 -0.0185193 -0.0171965
-0.00529123 0.00774788 -0.00283459
0.00680301 -0.0171965 -0.00151178
-0.0408181 0.0117163 0.0075589
0.000566918 -0.0340151 -0.0122832
Vibration 2
0.00302356 0.00359048 -0.0134171
0.00283459 0.00226767 -0.013606
0.0041574 0.00170075 -0.0132281
0.00548021 0.00245664 -0.0119053
0.00510226 0.00359048 -0.0190862
0.00396842 0.00434637 -0.0200311
0.00510226 0.00377945 -0.020787
0.0041574 0.00548021 -0.0264562
0.0041574 0.00642507 -0.0325033
0.00188973 0.0041574 -0.00245664
0.000377945 -0.0062361 0.00718096
0.00151178 -0.00718096 0.0219208
0.0041574 0.00264562 0.0270231
0.00453534 0.013606 0.0170075
0.00340151 0.0141729 0.0020787
0.00585815 0 0.0427078
0.00453534 -0.00170075 -0.0168186
0.00661404 -0.0126612 -0.0281569
0.00793685 -0.020409 -0.0357158
0.0075589 -0.0170075 -0.0319364
0.00529123 -0.00434637 -0.0192752
0.00396842 0.00321253 -0.0117163
0.0096376 -0.0272121 -0.0417629
0.0105825 0.0075589 0.0510226
0.00226767 0.00472431 -0.0368497
0.000566918 0.0124722 0.0364717
-0.0120942 0.00151178 0.0281569
-0.00812582 -0.00359048 0.00907068
0.00736993 0.0020787 -0.00359048
-0.0292908 -0.00321253 0.0404401
-0.0423299 -0.0124722 0.034771
-0.0381725 -0.0177634 0.0160627
-0.020976 -0.013606 0.00340151
0.0156847 0.0215429 0.0309915
-0.00075589 0.0143619 0.0478101
0.00113384 0.00472431 -0.041385
0.00188973 0.00170075 -0.0132281
0.0198421 0.0062361 0.000188973
-0.00132281 -0.013795 0.00302356
0.000566918 -0.0153068 0.0296687
0.00585815 0.0215429 0.020409
0.00396842 0.0226767 -0.00566918
0.00718096 -0.0156847 -0.0309915
0.00944863 -0.0296687 -0.0449755
0.00472431 -0.000944863 -0.0156847
0.00283459 0.0124722 -0.00245664
0.020409 -0.0270231 -0.048566
0.00245664 -0.0362827 -0.0451645
0.00831479 -0.0270231 -0.0408181
0.0128501 0.0020787 0.0646286
0.00793685 0.00340151 0.0455424
0.0145509 0.0217318 0.0502667
-0.0321253 0.000566918 0.0548021
-0.0557469 -0.0160627 0.0444086
-0.048377 -0.0253223 0.0111494
-0.0175745 -0.0183303 -0.0109604
0.0243775 0.0294797 0.0370386
Vibration 3
-0.00850377 0.00699199 -0.00699199
-0.00850377 0.0102045 -0.0075589
-0.0119053 0.0120942 -0.00812582
-0.0143619 0.0105825 -0.00850377
-0.0141729 0.00718096 -0.00529123
-0.0113384 0.00529123 -0.00642507
-0.0171965 0.0062361 0.00188973
-0.0113384 0.00170075 -0.00548021
-0.0115273 -0.00132281 -0.00472431
-0.00396842 0.00453534 -0.00491329
-0.000944863 0.00434637 -0.00396842
0.00699199 0 0.000944863
0.0122832 -0.00434637 0.00491329
0.00793685 -0.00340151 0.00245664
-0.000377945 0.00113384 -0.00245664
0.0219208 -0.00944863 0.0109604
-0.0120942 0.0164406 -0.00850377
-0.0109604 0.0355268 0.00774788
-0.0113384 0.0428968 0.00718096
-0.0134171 0.0308025 -0.00982658
-0.0147399 0.0103935 -0.0266451
-0.0143619 0.00359048 -0.0258892
-0.0143619 0.0400622 -0.00869274
0.0298577 -0.0160627 0.0173855
-0.0175745 0.00132281 0.00982658
0.0595264 -0.0379835 0.00396842
0.0230547 -0.0251334 0.0041574
-0.0111494 -0.000188973 0.00245664
-0.0153068 0.0103935 -0.000566918
0.0266451 -0.0379835 0.00850377
-0.00472431 -0.0264562 0.0109604
-0.0394953 -0.0020787 0.00925966
-0.0419519 0.0109604 0.00453534
0.0156847 -0.0428968 0.00226767
0.120565 -0.0440306 0.00566918
-0.0221098 -0.000377945 0.0171965
-0.00566918 0.0119053 -0.00680301
-0.0179524 0.0181414 0.00283459
-0.00472431 0.0075589 -0.00661404
0.00982658 -0.000377945 0.0020787
0.0109604 -0.0062361 0.00472431
-0.00377945 0.00170075 -0.0041574
-0.0096376 0.0455424 0.020409
-0.0100155 0.0585815 0.0202201
-0.0162516 0 -0.0402512
-0.0168186 -0.0120942 -0.0383614
-0.0234326 0.0362827 0.00566918
-0.0130391 0.0589595 -0.00944863
-0.00812582 0.034204 -0.0196532
0.0383614 -0.020409 0.0228657
0.0224877 -0.0249444 0.0183303
0.0349599 -0.00793685 0.0158737
0.0546131 -0.0566918 0.0096376
-0.00226767 -0.0360938 0.0141729
-0.0646286 0.00718096 0.0111494
-0.068975 0.0308025 0.00245664
0.0372276 -0.0491329 0.00302356
Vibration 4
0.00264562 -0.000377945 0.0217318
0.00226767 0.00075589 0.0224877
0.0020787 0.00113384 0.0215429
0.00188973 0.00075589 0.0241885
0.00151178 -0.000188973 0.020409
0.0020787 -0.000566918 0.0239995
-0.00113384 0.000566918 0.00736993
0.0020787 -0.00151178 0.027779
0.00188973 -0.00245664 0.0325033
0.00396842 -0.000944863 0.0115273
0.00831479 0.00793685 0.0041574
0.00888171 0.00812582 -0.0100155
0.00472431 -0.00113384 -0.0166296
0.000944863 -0.0105825 -0.00888171
0.000566918 -0.0103935 0.00529123
0.00491329 0.000566918 -0.0311805
0.00283459 -0.00283459 0.0115273
0.0075589 -0.00718096 0.00434637
0.0107714 -0.020787 -0.0156847
0.00925966 -0.0300466 -0.0283459
0.00359048 -0.0222988 -0.0175745
0.000377945 -0.00869274 0.00226767
0.0141729 -0.0491329 -0.0544241
-0.000944863 -0.00718096 -0.0410071
-0.00377945 0.00113384 -0.00680301
0.0117163 -0.00774788 -0.00736993
-0.00699199 0.013984 0.00075589
-0.00907068 0.0164406 0.00944863
0.000377945 0.00132281 0.0107714
-0.0222988 0.0332592 0.00075589
-0.0398732 0.055369 0.0096376
-0.041196 0.0572587 0.0181414
-0.0247554 0.0372276 0.0175745
0.0107714 -0.0236216 0.00548021
0.0270231 -0.0117163 -0.0232436
-0.00661404 0.00151178 -0.0181414
0.00302356 0.00113384 0.0217318
0.00377945 -0.00869274 0.00699199
0.0115273 0.0151178 0.00925966
0.0122832 0.0153068 -0.0160627
-0.00170075 -0.0179524 -0.013606
-0.00264562 -0.0175745 0.0111494
0.00907068 -0.000566918 0.0134171
0.0147399 -0.0251334 -0.0221098
0.0020787 -0.0279679 -0.0257003
-0.00359048 -0.00377945 0.0096376
0.0372276 -0.0444086 -0.0791795
-0.00321253 -0.0778567 -0.061794
0.0130391 -0.0419519 -0.0455424
-0.000566918 -0.00302356 -0.0531013
0.00075589 -0.00491329 -0.0383614
-0.00680301 -0.0187083 -0.0393063
-0.020598 0.0311805 -0.00642507
-0.0525344 0.0708647 0.00982658
-0.0546131 0.0742662 0.0251334
-0.0253223 0.0383614 0.0230547
0.0230547 -0.0368497 0.000944863
Vibration 5
-0.0154958 0.0141729 -0.013606
-0.0156847 0.00982658 -0.0153068
-0.0115273 0.00718096 -0.00680301
-0.00774788 0.00944863 -0.00396842
-0.00774788 0.0134171 -0.00264562
-0.0119053 0.0156847 -0.0041574
-0.00340151 0.013795 0.000188973
-0.0117163 0.0185193 0.00680301
-0.0119053 0.0200311 0.0173855
-0.013984 0.0132281 -0.0179524
-0.0226767 0.0241885 -0.0313695
-0.00642507 0.0154958 -0.0251334
0.0196532 -0.00453534 -0.00491329
0.0224877 -0.0119053 0.00283459
0.00491329 -0.00226767 -0.0041574
0.0410071 -0.0153068 0.00491329
-0.0117163 -0.00283459 0.0020787
-0.0241885 -0.0234326 -0.00718096
-0.0241885 -0.0398732 0.00132281
-0.0113384 -0.0353379 0.0190862
0.000944863 -0.0130391 0.0298577
0.00075589 0.00302356 0.0213539
-0.0103935 -0.05518 0.0260782
0.0808803 -0.0457314 0.0385504
0.000188973 0.0181414 0.00396842
0.000188973 0.00472431 -0.00661404
0.00188973 0.00510226 -0.0062361
0 0.00661404 -0.00434637
-0.00377945 0.00869274 -0.00264562
0.00566918 0.00359048 -0.00774788
0.0075589 0.00340151 -0.0075589
0.00585815 0.00491329 -0.00585815
0.0020787 0.00642507 -0.0041574
-0.00188973 0.0041574 -0.00642507
0.000566918 0.00453534 -0.00736993
0.00566918 0.0188973 0.00736993
-0.0188973 0.00774788 -0.0224877
-0.00472431 0.00888171 -0.00283459
-0.0410071 0.0389284 -0.0449755
-0.0120942 0.0228657 -0.0340151
0.0385504 -0.0253223 0.0149288
0.00736993 -0.00793685 0.00188973
-0.0340151 -0.0272121 -0.020787
-0.0340151 -0.0565028 -0.00661404
0.0109604 -0.00869274 0.0445975
0.0109604 0.0194642 0.0291018
0.00264562 -0.054991 0.0175745
-0.00736993 -0.0729434 0.0292908
-0.0253223 -0.054991 0.0357158
0.0982658 -0.0536682 0.0472432
0.0582036 -0.0699199 0.0661404
0.115084 -0.0353379 0.0266451
0.00699199 0.00245664 -0.00888171
0.0105825 0.00226767 -0.00869274
0.00736993 0.00491329 -0.00566918
0.00075589 0.0075589 -0.00302356
-0.00264562 0.00340151 -0.00699199
Vibration 6
0.00793685 -0.00604712 0.0020787
0.00736993 -0.00699199 -0.0120942
0.00680301 -0.0062361 -0.0109604
0.00585815 -0.00661404 -0.0075589
0.00642507 -0.00604712 -0.000566918
0.00718096 -0.00661404 0.0151178
0.0062361 -0.00510226 -0.0124722
0.00680301 -0.0105825 0.0504557
0.0062361 -0.0151178 0.0844708
0.00396842 -0.00434637 0.0020787
-0.0434637 0.0200311 -0.0357158
-0.055369 0.0264562 -0.0419519
-0.0170075 0.00831479 -0.00907068
0.0338261 -0.0171965 0.0306136
0.0430858 -0.0221098 0.0353379
-0.0360938 0.0183303 -0.0215429
0.00642507 -0.00226767 -0.00925966
0.00680301 0.00188973 -0.00566918
0.00491329 0.0134171 0.00453534
0.00264562 0.020598 0.0107714
0.00302356 0.0132281 0.00396842
0.00491329 0.00170075 -0.00604712
-0.000566918 0.0366607 0.0258892
-0.000188973 0.00226767 0.013606
0.00132281 -0.00132281 -0.0457314
0.00472431 -0.0020787 0.00642507
-0.00113384 -0.00529123 0.00340151
0.000377945 -0.00718096 -0.00359048
0.00736993 -0.00661404 -0.00831479
-0.00850377 -0.00604712 0.00831479
-0.013984 -0.00869274 0.00642507
-0.0122832 -0.0107714 -0.000377945
-0.00510226 -0.0100155 -0.00510226
0.0115273 0.000944863 0.00491329
0.00453534 -0.00132281 0.0100155
-0.00264562 0.000566918 -0.0763449
0.00699199 -0.00718096 -0.0226767
0.013795 -0.00793685 -0.0075589
-0.0719986 0.034204 -0.0595264
-0.0937304 0.0455424 -0.0714316
0.0650066 -0.0323143 0.0568808
0.0808803 -0.0400622 0.0640617
0.00831479 -0.00302356 -0.0100155
0.00491329 0.0175745 0.00812582
0.00151178 0.0171965 0.0075589
0.00510226 -0.00340151 -0.0107714
-0.0181414 0.0328812 0.0453534
0.0096376 0.0608492 0.0294797
0.00359048 0.0308025 0.0164406
-0.0285349 0.0171965 -0.0062361
0.00434637 0.0156847 0.0740773
0.0455424 -0.0357158 -0.00491329
-0.0100155 -0.00434637 0.0134171
-0.0198421 -0.00925966 0.0100155
-0.0166296 -0.0130391 -0.00188973
-0.00377945 -0.0115273 -0.0100155
0.0153068 0.00340151 0.00699199
Vibration 7
0.0130391 -0.00736993 -0.0211649
0.0124722 -0.00566918 -0.0234326
0.0107714 -0.00396842 -0.0166296
0.00888171 -0.00472431 -0.0100155
0.00831479 -0.00812582 -0.0115273
0.0105825 -0.00888171 -0.0194642
0.00434637 -0.0096376 -0.00075589
0.0105825 -0.0134171 -0.0268341
0.0103935 -0.0181414 -0.0349599
0.00907068 -0.00548021 -0.013606
-0.0239995 -0.00113384 -0.027401
-0.0372276 0.00548021 -0.0192752
-0.0151178 0.00812582 0.00321253
0.020787 0.00321253 0.0192752
0.0319364 -0.00302356 0.0102045
-0.0340151 0.0160627 0.00736993
0.0102045 -0.00302356 -0.0103935
0.00718096 -0.0143619 -0.0183303
0.00604712 -0.0128501 -0.00831479
0.00812582 0.000377945 0.00982658
0.0117163 0.0107714 0.0164406
0.0130391 0.00869274 0.00604712
0.00642507 0.00340151 0.0224877
-0.0130391 0.020976 0.0332592
0.00982658 -0.0196532 0.048188
0.00491329 -0.00453534 -0.00982658
-0.0102045 0.00793685 -0.00604712
-0.0041574 0.00340151 -0.00566918
0.00396842 -0.00396842 -0.00699199
-0.0311805 0.0249444 -0.00170075
-0.0447865 0.0370386 0.00283459
-0.0351489 0.0300466 0.00226767
-0.013984 0.0124722 -0.00245664
0.0103935 -0.013984 -0.00132281
0.0124722 -0.00680301 -0.0192752
0.0113384 -0.0239995 0.100722
0.0134171 -0.00510226 -0.0294797
0.000377945 -0.00188973 -0.00661404
-0.0404401 -0.00321253 -0.0440306
-0.0644397 0.00888171 -0.0304246
0.0393063 0.00453534 0.0377945
0.0587705 -0.00529123 0.020598
0.00566918 -0.0243775 -0.0317474
0.00321253 -0.0221098 -0.0145509
0.0134171 0.020787 0.0300466
0.0160627 0.0162516 0.0107714
0.000566918 0.0020787 0.0291018
0.0141729 0.00907068 0.0264562
0.00302356 0.00132281 0.0224877
-0.0368497 0.0283459 0.0308025
-0.00642507 0.0332592 0.0646286
0.0156847 0.00529123 0.0221098
-0.0370386 0.0289128 -0.0020787
-0.062361 0.0512116 0.00661404
-0.0442196 0.0385504 0.00529123
-0.0062361 0.00642507 -0.00396842
0.020976 -0.0217318 -0.00340151
Vibration 8
0.00548021 -0.00188973 -0.000377945
0.00529123 0.0041574 -0.0105825
0.00264562 0.00642507 -0.0105825
-0.00170075 0.00434637 -0.00831479
-0.00151178 -0.00188973 -0.000944863
0.00188973 -0.00396842 0.00548021
-0.00774788 -0.00264562 -0.000188973
0.00170075 -0.00661404 0.0202201
0.00132281 -0.00812582 0.034204
0.0096376 -0.00396842 0.00548021
0.0217318 -0.0134171 0.0181414
0.020409 -0.0128501 0.0196532
0.00491329 -0.00226767 0.00736993
-0.00434637 0.00529123 -0.00245664
-0.00113384 0.00340151 -0.00264562
0.00075589 -0.000377945 0.0075589
0.00226767 0.00529123 -0.0075589
0.00264562 -0.0398732 -0.0478101
0.0020787 -0.0462983 -0.0396842
0.00245664 -0.00491329 0.0107714
0.00321253 0.0404401 0.0500777
0.00434637 0.0436527 0.0394953
0.00132281 -0.0096376 0.0236216
-0.0289128 0.0196532 -0.0188973
-0.0134171 -0.0105825 -0.00453534
0.0102045 0.0075589 -0.00359048
0.00151178 0.00132281 -0.00888171
-0.00548021 0.00642507 -0.00982658
-0.00869274 0.00604712 -0.00774788
0.00566918 -0.00566918 -0.00699199
0.00226767 -0.0062361 -0.00793685
-0.0062361 -0.000377945 -0.00925966
-0.0096376 0.0062361 -0.0100155
-0.0523454 0.020787 -0.0226767
0.0661404 0.00491329 0.0149288
-0.0239995 -0.0120942 -0.0126612
0.00812582 0.00566918 -0.0168186
-0.0177634 0.00869274 -0.00793685
0.0315584 -0.020976 0.0257003
0.0298577 -0.0196532 0.0291018
-0.013795 0.0120942 -0.0096376
-0.00774788 0.00812582 -0.00925966
0.00321253 -0.0712427 -0.0840928
0.00132281 -0.0833369 -0.0719986
0.00321253 0.0721875 0.0882502
0.00680301 0.075967 0.0665184
-0.00340151 -0.0306136 0.0736993
0.00566918 0.0398732 0.0219208
0.000566918 -0.0419519 -0.0128501
-0.0325033 0.020976 -0.0198421
-0.0173855 0.0302356 -0.0468652
-0.0578256 0.0215429 -0.00831479
0.0120942 -0.00944863 -0.00585815
0.00585815 -0.0111494 -0.00774788
-0.0100155 -0.000566918 -0.0096376
-0.0160627 0.0109604 -0.0107714
-0.0514005 0.0289128 -0.0183303
Vibration 9
-0.0062361 0.00075589 -0.0020787
-0.00585815 -0.00377945 -0.00888171
-0.00151178 -0.00661404 -0.0100155
0.00245664 -0.00396842 -0.00585815
0.00321253 0.00113384 -0.000944863
-0.00132281 0.00377945 0.00472431
0.00831479 0.0020787 -0.00377945
-0.00113384 0.0120942 0.0196532
-0.00113384 0.020787 0.034582
-0.0075589 0.00170075 -0.00264562
0.00793685 -0.00548021 0.00869274
0.013795 -0.00850377 0.0103935
0.00245664 -0.00453534 0.000188973
-0.0160627 0.00359048 -0.0132281
-0.020409 0.00585815 -0.0141729
0.0120942 -0.00944863 0.00510226
-0.00132281 -0.00944863 -0.0130391
-0.00075589 -0.00850377 -0.0124722
-0.00188973 -0.00283459 -0.00793685
-0.00321253 0.00170075 -0.00434637
-0.00264562 -0.00283459 -0.00812582
-0.00188973 -0.00869274 -0.0128501
-0.0075589 0.0192752 0.0177634
0.0041574 -0.00850377 -0.00377945
0.0147399 0.00907068 0.00302356
0.00132281 -0.00472431 -0.00132281
-0.00340151 0.000377945 0.000566918
0.00340151 -0.00491329 -0.00264562
0.00907068 -0.00529123 -0.00585815
-0.0168186 0.00925966 0.00396842
-0.0219208 0.0117163 0.00472431
-0.0120942 0.0041574 0.000944863
0.000566918 -0.00453534 -0.00283459
0.0336371 -0.0120942 0.00888171
-0.0196532 -0.00396842 -0.0105825
0.0241885 0.0103935 0.0119053
-0.00869274 -0.00529123 -0.0122832
0.013795 -0.0062361 -0.00529123
0.0164406 -0.00888171 0.0158737
0.0272121 -0.0141729 0.0196532
-0.0264562 0.0075589 -0.0221098
-0.0332592 0.0105825 -0.0224877
0 -0.0109604 -0.0147399
-0.00132281 -0.000188973 -0.0062361
-0.00434637 0 -0.0062361
-0.00188973 -0.0115273 -0.0153068
-0.0612271 -0.0937304 0.309726
-0.00321253 0.335237 -0.00548021
0.034393 -0.157225 -0.210515
0.0183303 -0.0154958 0.00510226
-0.00132281 -0.0175745 -0.0232436
-0.00869274 0.00793685 0.00170075
-0.0234326 0.013984 0.0062361
-0.0332592 0.0190862 0.00793685
-0.0149288 0.00529123 0.00132281
0.00812582 -0.0103935 -0.00566918
0.0391173 -0.0168186 0.0075589
Vibration 10
-0.00340151 0.00075589 -0.00774788
-0.00302356 -0.00151178 -0.0213539
-0.000188973 -0.00359048 -0.0239995
0.00264562 -0.00170075 -0.0241885
0.00377945 0.00132281 -0.0107714
0.000377945 0.00321253 0.00396842
0.00718096 0.00188973 -0.0119053
0.000377945 0.0111494 0.0385504
0.000188973 0.0202201 0.0729434
-0.00264562 0.000566918 -0.00359048
0.0168186 -0.0109604 0.0128501
0.0222988 -0.013795 0.0166296
0.00566918 -0.00510226 0.00245664
-0.0151178 0.0062361 -0.0145509
-0.0181414 0.00774788 -0.0168186
0.0132281 -0.00925966 0.00831479
-0.000377945 -0.00529123 -0.0196532
-0.00680301 -0.00151178 -0.0115273
-0.00888171 0.00453534 0.00340151
-0.00472431 0.00661404 0.0102045
0.00245664 -0.00075589 -0.00151178
0.00453534 -0.0062361 -0.0162516
-0.00680301 0.0126612 0.0224877
-0.00888171 0.00226767 -0.0126612
0.0151178 0.00604712 0.0075589
0.00396842 -0.00075589 0
-0.00529123 -0.00132281 -0.00226767
0.00113384 -0.00736993 -0.0126612
0.00831479 -0.00302356 -0.0190862
-0.0222988 0.00264562 0.00585815
-0.0311805 -0.000377945 0.00359048
-0.0213539 -0.00888171 -0.0075589
-0.00510226 -0.0126612 -0.0156847
0.0300466 -0.00226767 0.00472431
-0.00812582 0.000188973 -0.00170075
0.0234326 0.00604712 0.0279679
-0.00434637 -0.00245664 -0.0262672
0.0117163 0.000377945 -0.0164406
0.0283459 -0.0173855 0.0221098
0.0389284 -0.0224877 0.0298577
-0.0281569 0.0132281 -0.0253223
-0.0326923 0.0143619 -0.027401
-0.0105825 -0.00226767 -0.0158737
-0.0145509 0.00812582 0.0103935
0.00661404 -0.00132281 0.00170075
0.0096376 -0.0107714 -0.0236216
0.00793685 0.0891951 -0.161761
0.00925966 -0.185382 0.0476211
-0.0368497 0.132281 0.17839
0.00170075 -0.00340151 -0.00472431
-0.00774788 -0.000566918 -0.0440306
-0.034582 0.0181414 -0.00245664
-0.0287238 0.00793685 0.013795
-0.0453534 0.00321253 0.0102045
-0.0266451 -0.0122832 -0.00982658
0.00245664 -0.0194642 -0.0241885
0.0379835 -0.00283459 0.0062361
Vibration 11
-0.000377945 0.00472431 -0.0041574
-0.000566918 0.00793685 -0.00736993
-0.0020787 0.00944863 0
-0.00548021 0.00812582 0.0119053
-0.00566918 0.0041574 0.00869274
-0.00321253 0.00302356 0.000377945
-0.0105825 0.00321253 0.0130391
-0.00340151 0 -0.00566918
-0.00340151 -0.00245664 -0.0122832
0.00132281 0.00377945 -0.00321253
0.00302356 0.00113384 0
0.00321253 0.00075589 0.00302356
0.00170075 0.00359048 0.00226767
0.000188973 0.00642507 -0.00075589
0.000188973 0.00642507 -0.00340151
0.00188973 0.00321253 0.00548021
-0.0020787 0.00982658 -0.00472431
0.00699199 -0.0266451 -0.0440306
0.00718096 -0.0253223 -0.0445975
-0.00132281 0.0156847 -0.00283459
-0.00907068 0.0502667 0.0330702
-0.00812582 0.0447865 0.0302356
-0.00188973 0.0200311 -0.00113384
-0.00283459 0.00850377 0.00226767
-0.0217318 -0.00642507 -0.00736993
0.00604712 -0.0308025 -0.00529123
0.0147399 -0.0128501 0.00661404
-0.00566918 0.00340151 0.0183303
-0.0107714 0.00907068 0.0181414
0.0357158 -0.0194642 -0.0041574
0.0311805 -0.0100155 0.00075589
0.00566918 0.00982658 0.0143619
-0.0130391 0.0158737 0.0224877
0.0995886 -0.0589595 0.0298577
-0.0750221 -0.0289128 -0.0423299
-0.0379835 -0.00888171 -0.0217318
0.000944863 0.00888171 -0.0156847
-0.00718096 0.0141729 0.0211649
0.00377945 -0.000944863 0.000188973
0.00453534 -0.00151178 0.00566918
-0.00075589 0.00869274 -0.00113384
-0.000566918 0.00831479 -0.00566918
0.0141729 -0.0568808 -0.0729434
0.013606 -0.0559359 -0.076156
-0.0162516 0.0812582 0.0636838
-0.0124722 0.0674632 0.0536682
0.0020787 0.041574 -0.0532903
0 -0.034393 0.0041574
-0.0075589 0.0538572 0.041196
-0.00302356 0.00774788 0.00472431
-0.00113384 0.0096376 -0.00396842
-0.00718096 0.0115273 0.00396842
0.0542351 -0.034204 -0.013795
0.0474321 -0.0168186 -0.00585815
0.000566918 0.0200311 0.0187083
-0.0313695 0.0308025 0.0315584
0.0986437 -0.0789905 0.0190862
Vibration 12
-0.0107714 -0.00736993 0.00491329
-0.0103935 -0.0168186 0.00774788
-0.00226767 -0.0219208 0.0109604
0.00434637 -0.0170075 0.0268341
0.00472431 -0.00718096 0.0185193
-0.00283459 -0.00245664 0.00699199
0.013984 -0.00566918 0.013795
-0.00245664 0.00850377 -0.0115273
-0.00170075 0.0190862 -0.0300466
-0.0188973 -0.00321253 -0.0041574
-0.0149288 -0.00340151 -0.00302356
-0.0128501 -0.00434637 -0.00491329
-0.0147399 -0.00642507 -0.00718096
-0.0253223 -0.00302356 -0.013606
-0.02759 -0.00170075 -0.0122832
-0.00510226 -0.0111494 -0.00377945
-0.00113384 -0.0213539 -0.00396842
0.0162516 -0.0302356 -0.0253223
0.0153068 -0.00774788 -0.0264562
-0.00377945 0.0249444 -0.00510226
-0.0194642 0.0253223 0.0062361
-0.0171965 0.00075589 0.00566918
-0.00774788 0.0600933 0.00226767
0.020598 -0.0306136 0.0179524
0.0228657 0.013795 -0.00453534
0.00226767 -0.00491329 0.000377945
0.000188973 0.00188973 0.00321253
0.0141729 -0.00793685 0.0103935
0.0153068 -0.0188973 0.0158737
-0.0124722 0.0211649 0.00226767
-0.00736993 0.0298577 0.00661404
0.0119053 0.0166296 0.0120942
0.0230547 -0.0020787 0.0141729
-0.0264562 -0.00566918 -0.00302356
0.0283459 -0.0075589 0
0.041574 0.0198421 -0.0230547
-0.0168186 -0.020409 0.00396842
0.0147399 -0.0283459 0.0113384
-0.0120942 -0.00302356 -0.000188973
-0.00831479 -0.00453534 -0.00340151
-0.0313695 -0.00170075 -0.0192752
-0.0351489 0.000188973 -0.0164406
0.0309915 -0.0534792 -0.0387394
0.0287238 -0.0141729 -0.041574
-0.0334482 0.0459203 0.0175745
-0.0287238 0.000566918 0.013606
-0.0258892 0.0922186 -0.0602823
0.00132281 0.00472431 0.0117163
-0.00188973 0.110738 0.0563138
0.0383614 -0.0396842 0.0294797
0.00245664 -0.0515895 0.0289128
0.0402512 -0.0151178 0.0115273
-0.0260782 0.0298577 -0.00321253
-0.0183303 0.0459203 0.00548021
0.0179524 0.0215429 0.0151178
0.0377945 -0.0124722 0.0187083
-0.0270231 -0.00680301 -0.00396842
Vibration 13
-0.00812582 0.00453534 0.0360938
-0.00850377 0.00226767 0.047999
-0.00774788 0.00170075 0.0183303
-0.00888171 0.000188973 -0.0166296
-0.00869274 0.00491329 -0.0151178
-0.00888171 0.00434637 0.00529123
-0.00377945 0.00736993 -0.0308025
-0.00888171 -0.00321253 -0.0124722
-0.00907068 -0.013795 -0.0308025
-0.00245664 0.000944863 0.0379835
-0.00604712 0.0198421 0.0181414
0.00170075 0.0166296 0.00377945
0.013606 -0.00585815 0.00944863
0.0234326 -0.0279679 0.0328812
0.0141729 -0.0221098 0.0462983
0.0170075 -0.00510226 -0.0124722
-0.00774788 0.00377945 0.0134171
0.0020787 -0.00907068 -0.00491329
0.00321253 -0.00907068 -0.0149288
-0.00472431 0.0062361 -0.0041574
-0.0141729 0.020976 0.0154958
-0.0145509 0.0177634 0.0228657
-0.00340151 0.0062361 -0.0158737
-0.0102045 -0.00888171 -0.0457314
0.0245664 0.034771 -0.00075589
0.00377945 -0.000566918 -0.00321253
-0.00188973 -0.00869274 -0.00888171
-0.00529123 -0.00718096 -0.020409
0.00188973 -0.00302356 -0.0262672
-0.0062361 -0.0183303 -0.00170075
-0.0153068 -0.0257003 -0.0062361
-0.0211649 -0.0230547 -0.0170075
-0.0162516 -0.013606 -0.0239995
0.020598 0.00529123 -0.00566918
-0.00510226 0.00151178 0.00321253
0.0612271 0.0408181 0.0249444
-0.0103935 0.00132281 0.0752111
0.00718096 -0.00585815 -0.0257003
-0.0160627 0.0383614 0.013984
-0.00321253 0.0315584 -0.0124722
0.0372276 -0.0491329 0.0406291
0.0185193 -0.0360938 0.0606602
0.00907068 -0.0198421 -0.0109604
0.0105825 -0.0211649 -0.0308025
-0.0211649 0.0340151 0.0245664
-0.0196532 0.0260782 0.0336371
0.000566918 0.00604712 -0.0177634
-0.0119053 0.00661404 -0.020787
0.00226767 0.00585815 -0.0198421
-0.0222988 0.00642507 -0.0793685
0.00491329 0.0100155 -0.0444086
-0.0328812 -0.0444086 -0.0391173
-0.00226767 -0.0198421 0.00736993
-0.0179524 -0.0334482 -0.000944863
-0.0291018 -0.0279679 -0.020409
-0.020598 -0.0115273 -0.0319364
0.0241885 0.0102045 -0.0020787
Vibration 14
-0.0075589 0.00264562 -0.0251334
-0.00812582 0.00075589 -0.0366607
-0.00793685 0.000188973 -0.0160627
-0.0062361 0.00170075 0.0151178
-0.00661404 0.00321253 0.0119053
-0.00680301 0.00302356 -0.00661404
-0.00226767 0.00264562 0.0241885
-0.00699199 -0.00075589 -0.00793685
-0.00718096 -0.00680301 -0.0115273
-0.00132281 -0.000944863 -0.0190862
-0.0143619 0.000944863 -0.0247554
0.00226767 -0.00869274 -0.00321253
0.0292908 -0.0171965 0.020787
0.0442196 -0.0192752 0.02759
0.0287238 -0.0109604 0.00774788
0.0447865 -0.0272121 0.0447865
-0.00812582 -0.00434637 -0.0170075
-0.0156847 -0.00170075 -0.00925966
-0.0170075 -0.00113384 0
-0.0120942 -0.00453534 0.000566918
-0.00434637 -0.0122832 -0.0119053
-0.00359048 -0.0111494 -0.0198421
-0.0147399 0.00113384 0.0168186
-0.0512116 0.0360938 -0.0406291
0.00302356 0.0175745 0.00264562
-0.00283459 -0.00529123 0.00321253
-0.00132281 0.00472431 0.00869274
0.00604712 -0.000188973 0.0168186
-0.00113384 -0.000188973 0.0219208
-0.00396842 0.0173855 0.00434637
0.00585815 0.0219208 0.00736993
0.020409 0.0122832 0.013795
0.0202201 0.00132281 0.0187083
-0.0128501 -0.0132281 0.00812582
0.00548021 -0.0075589 -0.00585815
0.0170075 0.0230547 -0.0213539
-0.00812582 0.000377945 -0.0583925
-0.00661404 0.00264562 0.0217318
-0.0383614 0.0096376 -0.0459203
-0.00736993 -0.00831479 -0.0062361
0.0699199 -0.0291018 0.0500777
0.0410071 -0.0124722 0.0128501
-0.020787 0.00151178 -0.0103935
-0.0221098 0.00321253 0.00736993
0.00075589 -0.0179524 -0.013606
0.000377945 -0.0151178 -0.0260782
-0.0232436 0.00453534 0.0143619
-0.00283459 -0.00245664 0.0238105
-0.0200311 0.00642507 0.0262672
-0.0695419 0.0447865 -0.0506447
-0.0103935 0.075778 -0.121509
-0.140218 0.0321253 -0.00831479
-0.0132281 0.0228657 -0.0020787
0.00283459 0.0317474 0.00434637
0.0311805 0.0134171 0.0154958
0.0308025 -0.00566918 0.0238105
-0.0122832 -0.0198421 0.00472431
Vibration 15
0.0109604 -0.00869274 -0.0287238
0.00944863 0.00151178 -0.0283459
-0.00226767 0.00925966 -0.00188973
-0.0119053 0.00283459 0.0119053
-0.0132281 -0.00453534 -0.00113384
0.000566918 -0.0122832 -0.0119053
-0.0188973 -0.00472431 0.000944863
-0.00075589 -0.0410071 0.00736993
-0.00245664 -0.0784236 0.0311805
0.0147399 -0.0109604 -0.027779
0.0181414 -0.02759 -0.0103935
0.0075589 -0.0230547 -0.00075589
-0.00736993 -0.00113384 -0.00944863
-0.0075589 0.013984 -0.0234326
0.00472431 0.0062361 -0.0317474
-0.0262672 0.00661404 -0.000377945
-0.00359048 0.0219208 0.0124722
-0.0062361 0.0234326 0.0156847
-0.00510226 0.0151178 0.0103935
-0.00132281 0.00510226 0.0020787
-0.00151178 0.0181414 0.013606
-0.00264562 0.0260782 0.0185193
0.00453534 -0.0249444 -0.0243775
0.00113384 0.0128501 0.034582
0.0226767 0.0455424 -0.00283459
-0.0102045 -0.0107714 0
0.00359048 -0.00982658 0.00264562
-0.00888171 -0.000188973 0.0105825
-0.00377945 -0.00302356 0.0115273
0.0192752 -0.0162516 -0.00377945
0.0111494 -0.00529123 0.00075589