[Molden Format]
[FREQ]
-1367.5
14.9
19.8
27.0
30.2
32.4
38.6
42.3
48.2
60.1
63.2
82.1
101.4
113.6
125.5
138.4
143.1
157.8
176.2
185.1
194.2
210.6
224.0
231.5
247.1
254.9
273.5
282.0
287.3
308.3
333.1
345.9
350.9
357.4
358.3
364.4
371.5
407.9
414.6
429.8
447.6
473.0
481.1
495.8
507.2
529.4
540.7
554.7
557.2
583.0
595.6
606.6
614.0
617.8
627.1
644.2
670.3
681.0
681.9
700.1
721.4
743.5
760.2
780.3
788.7
817.1
832.2
848.3
858.3
881.3
883.3
895.4
901.6
904.2
944.7
946.1
952.3
976.2
1007.8
1009.2
1009.5
1015.8
1018.0
1024.1
1031.4
1040.8
1047.8
1070.9
1080.9
1087.3
1096.9
1125.9
1130.2
1178.7
1179.2
1183.3
1186.2
1190.7
1206.5
1230.4
1247.6
1262.1
1262.8
1266.6
1275.3
1281.6
1286.6
1291.8
1298.0
1308.6
1323.6
1329.7
1332.2
1337.2
1341.3
1348.8
1350.9
1357.1
1374.2
1387.3
1389.0
1406.1
1426.9
1456.3
1482.0
1519.0
1519.7
1525.3
1530.0
1585.3
1586.5
1593.6
1637.2
1686.7
1695.7
1699.9
1702.1
1705.2
1708.7
1734.1
1774.7
1798.1
1859.3
2296.9
2452.5
2652.5
2653.9
2666.9
2672.4
2731.7
2740.2
2740.7
2745.2
2747.5
2749.3
2751.5
2755.0
2761.9
2762.9
2763.6
2766.5
2766.9
2772.0
2779.5
2958.3
       
[FR-COORD]
C -2.26332 -2.91339 -0.898943
C 0.41574 -2.91339 -0.898943
C 1.7497 -0.683514 -0.898943
N 0.515706 1.61572 -0.974532
C -2.19662 1.7325 -1.00496
C -3.5508 -0.649688 -0.916517
N -3.33877 3.88981 -1.14669
C -6.22079 -0.536871 -0.810881
N -8.40569 -0.462416 -0.717907
C -3.57631 -5.35038 -0.857747
C -5.35643 -5.93941 -2.73179
C -6.57927 -8.2513 -2.7093
C -6.0218 -9.977 -0.766284
C -4.26492 -9.41783 1.11985
C -3.03811 -7.09176 1.04974
O -7.34971 -12.1589 -0.969996
C 4.53194 -0.692774 -0.755323
C 5.68713 -1.57376 1.44715
C 8.30988 -1.57036 1.6382
C 9.78425 -0.702789 -0.372654
C 8.61621 0.154391 -2.58307
C 5.99534 0.164217 -2.77639
C 12.5937 -0.681813 -0.184248
C -7.00786 -14.0015 0.954312
C -2.2484 6.2548 -1.27216
C -1.90333 7.61446 1.25327
C 0.512305 7.00332 2.5139
C 2.25784 5.26383 1.53843
C 1.97665 3.83539 -0.797464
C 1.00987 8.23486 4.79575
C 3.22822 7.74145 6.12158
C 4.96828 6.01613 5.1599
C 4.48904 4.79556 2.87824
O 2.71856 4.85357 -3.00221
O -3.46217 9.03856 2.07511
O -1.60853 7.25145 -3.24523
H 1.41918 -4.70901 -0.909714
H 2.13993 6.88125 -3.45045
H -5.77973 -4.56407 -4.21371
H -7.9669 -8.74679 -4.14304
H -3.84899 -10.7478 2.62086
H -1.66069 -6.62217 2.51107
H 4.53685 -2.24632 3.01922
H 9.20882 -2.24481 3.35899
H 9.76176 0.825999 -4.15211
H 5.08317 0.853589 -4.4898
H 13.3623 1.22473 -0.499833
H 13.4558 -1.92884 -1.60835
H 13.2872 -1.31336 1.66674
H -8.30875 -15.5048 0.351678
H -7.57081 -13.2574 2.80038
H -5.06106 -14.6962 0.974532
H -0.367174 9.58771 5.54124
H 3.59917 8.70049 7.90302
H 6.70853 5.62118 6.18507
H 5.8591 3.45215 2.1146
H 1.23909 5.19013 -4.53818

[FR-NORM-COORD]
Vibration 1
-0.000188973 -0.000188973 -0.000188973
0.000188973 -0.000566918 0.000377945
0 -0.00151178 -0.00075589
-0.00642507 -0.00907068 0.00718096
-0.000377945 0.000377945 -0.00132281
0.000188973 -0.000377945 0.000377945
0.000188973 -0.000566918 0.00170075
0 0.000188973 -0.000188973
0 0 0
0 0 0
0 0 0
0 0 0
0 0 0
0 0 0
0 0 0
0 0 0
-0.000377945 0.00075589 0.000377945
0.000188973 0 0
-0.000377945 0 0.000188973
0.000188973 0 0
-0.000188973 0 0
0.000188973 -0.000377945 0
-0.000188973 0 0.000188973
0 0 0
-0.00283459 0.00283459 -0.00075589
-0.00132281 -0.000377945 -0.00132281
0.000188973 -0.0020787 0.00075589
-0.00264562 -0.00170075 0.00869274
0.0328812 0.0366607 -0.061794
0.000188973 0 0
0.000188973 -0.000188973 0
0 0.000188973 -0.000377945
-0.00075589 -0.00132281 -0.000944863
0.0260782 -0.068975 0.0867384
0.000566918 -0.000188973 0.000377945
-0.00982658 0.00359048 0.00226767
-0.000188973 -0.00132281 -0.00132281
-0.448432 0.0115273 -0.684648
0.00132281 0 -0.000566918
0 0 -0.000188973
0.000188973 0 0
0 -0.000377945 -0.000188973
0.000377945 -0.00245664 -0.000566918
0 -0.00075589 0
-0.000566918 0.000944863 -0.00113384
-0.00245664 0.00283459 -0.00245664
0.000377945 0.000188973 -0.000377945
0 0 -0.000377945
0.000377945 0 -0.000188973
0 0 -0.000188973
0 -0.000188973 0
0 0 0
0 0.00113384 -0.00113384
0.000377945 0.000188973 0.000377945
0.00113384 0 -0.000944863
0.00491329 0.0020787 0.00245664
-0.0332592 0.779512 -0.170642
Vibration 2
-0.00604712 -0.00396842 0.0062361
-0.0062361 -0.00245664 0.0109604
-0.00736993 -0.00170075 0.00925966
-0.00831479 -0.00245664 0.00302356
-0.00831479 -0.00377945 0.00944863
-0.00718096 -0.00453534 0.00699199
-0.0100155 -0.00396842 0.0164406
-0.00736993 -0.0062361 0.00472431
-0.0075589 -0.00774788 0.00283459
-0.00510226 -0.00472431 -0.000944863
-0.00075589 -0.00151178 -0.00604712
0.000944863 -0.00245664 -0.0143619
-0.00188973 -0.00680301 -0.0173855
-0.00642507 -0.00982658 -0.0122832
-0.00812582 -0.00869274 -0.00377945
0.000566918 -0.00736993 -0.0258892
-0.00774788 0 0.0166296
-0.0149288 0.00453534 0.0222988
-0.0156847 0.00850377 0.0323143
-0.00925966 0.00774788 0.0366607
-0.0020787 0.00226767 0.0308025
-0.00132281 -0.00170075 0.020787
-0.0100155 0.0132281 0.0478101
-0.00132281 -0.0124722 -0.0304246
-0.0119053 -0.00321253 0.0170075
0.00283459 -0.00982658 0.0185193
0.0200311 0.00321253 -0.00812582
0.0153068 0.00736993 -0.0243775
-0.00831479 -0.00113384 -0.0162516
0.0434637 0.0126612 -0.0185193
0.0629279 0.027779 -0.0455424
0.0587705 0.0328812 -0.061983
0.034771 0.0224877 -0.0515895
-0.0283459 -0.00774788 -0.0262672
0.00113384 -0.0238105 0.0393063
-0.0243775 0.00188973 0.0154958
-0.00510226 -0.00188973 0.0156847
-0.0323143 -0.00812582 -0.0251334
0.00132281 0.00188973 -0.00359048
0.00434637 0 -0.0185193
-0.00869274 -0.0132281 -0.0143619
-0.0117163 -0.0111494 0.000377945
-0.0198421 0.00566918 0.0192752
-0.0211649 0.0124722 0.0368497
0.00283459 0.00132281 0.0340151
0.0041574 -0.00548021 0.0162516
-0.0130391 0.0158737 0.0559359
-0.00151178 0.0190862 0.048188
-0.0160627 0.0100155 0.0489439
0.00113384 -0.0119053 -0.0370386
-0.00529123 -0.0181414 -0.0294797
-0.00075589 -0.0107714 -0.0289128
0.0464873 0.00869274 -0.00529123
0.0814472 0.0357158 -0.0534792
0.0740773 0.0447865 -0.0835259
0.0311805 0.0258892 -0.0640617
-0.0434637 -0.0100155 -0.0122832
Vibration 3
-0.00736993 0.00283459 0.0141729
-0.00699199 0.000566918 0.00604712
-0.00453534 -0.00113384 0.00718096
-0.00188973 0.000377945 0.00944863
-0.0020787 0.00302356 0.0134171
-0.00453534 0.00453534 0.0241885
0.000188973 0.00359048 0.00529123
-0.00340151 0.00925966 0.0444086
-0.00245664 0.0134171 0.0631168
-0.00736993 0.00302356 0.00907068
-0.0336371 0.0215429 0.0279679
-0.0279679 0.0185193 0.0171965
0.00472431 -0.00453534 -0.0126612
0.0291018 -0.0226767 -0.0300466
0.0221098 -0.0187083 -0.0187083
0.00831479 -0.00585815 -0.0217318
-0.00453534 -0.00529123 0.00604712
-0.00566918 -0.0020787 0.00812582
-0.00566918 -0.00944863 0.00642507
-0.00434637 -0.0200311 0.00264562
-0.00321253 -0.0219208 0.00132281
-0.00340151 -0.0143619 0.00302356
-0.0041574 -0.027779 0.00075589
0.0531013 -0.0360938 -0.0587705
0.00340151 0.00132281 -0.0117163
0.00566918 0.0196532 -0.0221098
0.000188973 0.0177634 -0.0126612
-0.00302356 0.00680301 0.00075589
0.000566918 -0.00113384 0.00529123
-0.00226767 0.0268341 -0.0170075
-0.00850377 0.0243775 -0.00736993
-0.0124722 0.0122832 0.00680301
-0.0096376 0.00377945 0.0107714
0.00585815 -0.0096376 0.00302356
0.0113384 0.034393 -0.0366607
0.00472431 -0.013606 -0.0188973
-0.00850377 -0.000188973 -0.000377945
0.00850377 -0.0111494 -0.00661404
-0.0576366 0.0381725 0.0500777
-0.0472432 0.0330702 0.0308025
0.0527234 -0.0396842 -0.0515895
0.0406291 -0.0330702 -0.0315584
-0.00680301 0.00585815 0.0105825
-0.00661404 -0.00718096 0.00774788
-0.00226767 -0.0294797 -0.000944863
-0.00245664 -0.0160627 0.0020787
-0.00377945 -0.020787 0.0427078
-0.00548021 0.00377945 -0.027401
-0.00321253 -0.0693529 -0.013795
0.048377 -0.0319364 -0.0589595
0.0848487 -0.069164 -0.0357158
0.0566918 -0.02759 -0.107525
0.00075589 0.0359048 -0.0279679
-0.0103935 0.0313695 -0.0109604
-0.0177634 0.00982658 0.0147399
-0.0124722 -0.00529123 0.0215429
0.00982658 -0.0149288 -0.00188973
Vibration 4
-0.00529123 0.00793685 -0.0162516
-0.00529123 0.00736993 -0.0175745
-0.00396842 0.00661404 -0.0156847
-0.00264562 0.00699199 -0.0170075
-0.00264562 0.00812582 -0.0164406
-0.0041574 0.00869274 -0.0187083
-0.00188973 0.00888171 -0.0115273
-0.0041574 0.0113384 -0.020409
-0.0041574 0.0141729 -0.0228657
-0.00321253 0.00718096 -0.00585815
-0.0213539 0.00396842 0.0122832
-0.0158737 0.00113384 0.0239995
0.00850377 0.00113384 0.0168186
0.0258892 0.00453534 -0.000188973
0.0192752 0.00736993 -0.0115273
0.0122832 -0.00245664 0.0292908
-0.00434637 0.00226767 -0.00661404
-0.0154958 -0.0181414 -0.00888171
-0.0164406 -0.0268341 0.0020787
-0.00585815 -0.0151178 0.0149288
0.00529123 0.00736993 0.0175745
0.00604712 0.0158737 0.00680301
-0.00661404 -0.020598 0.0279679
0.0434637 -0.00585815 0.020409
-0.00188973 0.00944863 0
-0.00113384 -0.00377945 0.00718096
0 -0.00831479 0.00264562
0.000377945 -0.00264562 -0.00680301
-0.00188973 0.0062361 -0.0119053
0.000944863 -0.0190862 0.00831479
0.00226767 -0.0241885 0.0041574
0.00283459 -0.0181414 -0.00548021
0.00188973 -0.0075589 -0.0109604
-0.00472431 0.013795 -0.00925966
-0.0020787 -0.0096376 0.0158737
-0.00264562 0.0196532 0.00491329
-0.00585815 0.00699199 -0.0188973
-0.00548021 0.0154958 -0.00170075
-0.0393063 0.00321253 0.0168186
-0.0292908 -0.00132281 0.0377945
0.0438416 0.00491329 -0.00491329
0.0323143 0.0102045 -0.0247554
-0.0236216 -0.02759 -0.0187083
-0.0253223 -0.0430858 0.000377945
0.013606 0.0179524 0.0281569
0.0151178 0.0325033 0.00869274
-0.0170075 0.0102045 0.186138
0.00774788 0.100344 -0.0685971
-0.0115273 -0.167052 -0.0202201
0.041574 -0.00925966 0.0330702
0.0638727 -0.0126612 0.0294797
0.0464873 0.00132281 -0.00585815
0.000566918 -0.0236216 0.0158737
0.00302356 -0.0326923 0.00869274
0.00377945 -0.0219208 -0.00888171
0.00188973 -0.00321253 -0.0183303
-0.00661404 0.0188973 -0.00642507
Vibration 5
0.00132281 -0.0041574 -0.0130391
0.00151178 -0.00510226 -0.0215429
0.00245664 -0.00566918 -0.0170075
0.00321253 -0.00491329 -0.0134171
0.00321253 -0.00377945 -0.00907068
0.00245664 -0.00302356 -0.00453534
0.00396842 -0.00340151 -0.00850377
0.00340151 0 0.0124722
0.00396842 0.00321253 0.027779
-0.00113384 -0.00245664 -0.00850377
-0.0300466 0.0102045 0.0147399
-0.0370386 0.013984 0.0228657
-0.0141729 0.0041574 0.0075589
0.0164406 -0.0100155 -0.0168186
0.0222988 -0.0132281 -0.0247554
-0.0262672 0.0103935 0.0196532
0.0020787 -0.00226767 -0.0100155
-0.00377945 -0.00472431 -0.00774788
-0.00491329 0.013984 0.00736993
0 0.034771 0.0200311
0.00642507 0.0306136 0.0151178
0.0075589 0.0119053 0
-0.00132281 0.0548021 0.0368497
-0.00226767 0.000566918 0.00585815
0.00529123 -0.00377945 -0.0062361
0.00604712 -0.00699199 -0.00453534
0.00340151 -0.0128501 -0.00264562
0.00359048 -0.0109604 -0.00585815
0.00359048 -0.00548021 -0.00907068
0.00113384 -0.020787 0.0020787
-0.000944863 -0.0266451 0.00340151
-0.000188973 -0.0236216 -0.000566918
0.00226767 -0.0154958 -0.00529123
0.00491329 -0.00188973 -0.00699199
0.00793685 -0.00453534 -0.00472431
0.00510226 -0.00151178 -0.00529123
0.000944863 -0.00529123 -0.0289128
0.00491329 -0.00132281 -0.0041574
-0.0472432 0.0171965 0.0260782
-0.0597153 0.0245664 0.041196
0.0349599 -0.0179524 -0.0291018
0.0451645 -0.0239995 -0.0428968
-0.00793685 -0.0188973 -0.0166296
-0.0096376 0.0132281 0.00944863
0.0103935 0.0432747 0.0232436
0.0122832 0.0102045 -0.00321253
0.0062361 0.0217318 -0.140785
0.00340151 -0.0839038 0.160438
-0.013795 0.230169 0.101478
-0.0192752 0.00907068 0.0213539
0.0323143 -0.00510226 0.0187083
-0.00510226 -0.00831479 -0.0302356
0.00075589 -0.0226767 0.00491329
-0.00302356 -0.0332592 0.0075589
-0.00151178 -0.02759 0.000188973
0.00302356 -0.0128501 -0.00850377
0.00566918 0.000188973 -0.00718096
Vibration 6
0.0105825 -0.00925966 -0.00075589
0.0103935 -0.00718096 -0.0105825
0.00831479 -0.00585815 -0.00774788
0.00548021 -0.00680301 -0.00264562
0.00510226 -0.00925966 0.00548021
0.00831479 -0.0103935 0.0128501
0.00245664 -0.0107714 0.00472431
0.00888171 -0.0143619 0.0359048
0.00982658 -0.0181414 0.0574477
0.00793685 -0.00793685 -0.00472431
0.0103935 -0.00132281 -0.00925966
-0.00075589 0.00453534 -0.0103935
-0.0145509 0.00434637 -0.00661404
-0.0141729 -0.00377945 -0.00472431
-0.00226767 -0.00982658 -0.00396842
-0.027779 0.0122832 -0.00585815
0.00831479 -0.000566918 -0.00680301
0.00774788 -0.0100155 -0.0103935
0.00736993 0.00188973 -0.0041574
0.00774788 0.0232436 0.00548021
0.00850377 0.0311805 0.00793685
0.00888171 0.0185193 0.00170075
0.00680301 0.0489439 0.0164406
-0.0531013 0.0185193 0.00472431
-0.00075589 -0.00982658 -0.00491329
0.00226767 -0.00075589 -0.0103935
0.000188973 -0.00170075 -0.00699199
-0.000188973 -0.00434637 -0.00302356
0.00264562 -0.00491329 -0.00283459
-0.0020787 -0.000566918 -0.00699199
-0.00529123 -0.00302356 -0.00264562
-0.00604712 -0.00642507 0.00188973
-0.00359048 -0.00699199 0.00151178
0.00075589 -0.0041574 -0.00321253
0.00548021 0.00661404 -0.0168186
-0.00529123 -0.0156847 -0.00944863
0.0117163 -0.00642507 -0.0179524
-0.00302356 -0.00585815 -0.00510226
0.0200311 0 -0.0107714
0.000188973 0.0100155 -0.0132281
-0.0230547 -0.00510226 -0.00340151
-0.0020787 -0.0158737 -0.00226767
0.0075589 -0.0262672 -0.0173855
0.00661404 -0.00453534 -0.0062361
0.00888171 0.048188 0.0154958
0.0096376 0.0241885 0.00359048
-0.034771 0.107714 0.265695
0.0406291 0.252089 -0.13984
0.0132281 -0.175178 -0.062361
-0.062172 0.0262672 0.00491329
-0.0568808 0.0319364 -0.00188973
-0.0589595 0.00264562 0.0183303
-0.00151178 0.00188973 -0.0105825
-0.00699199 -0.00226767 -0.00264562
-0.00888171 -0.00869274 0.00548021
-0.00396842 -0.00925966 0.00491329
0.00075589 -0.00850377 -0.0041574
Vibration 7
-0.000944863 -0.00453534 -0.00151178
-0.000566918 -0.00585815 0.00793685
0.000377945 -0.00680301 0.00907068
0.00283459 -0.00566918 0.00850377
0.00340151 -0.00396842 -0.00453534
0.00132281 -0.00302356 -0.0105825
0.00566918 -0.00321253 -0.0109604
0.00075589 0.0020787 -0.027401
0.000188973 0.00812582 -0.0427078
-0.00340151 -0.00283459 -0.00170075
-0.0247554 0.00850377 0.0147399
-0.0306136 0.0117163 0.0181414
-0.013984 0.00188973 0.00434637
0.00888171 -0.0111494 -0.0130391
0.0132281 -0.013606 -0.0158737
-0.0238105 0.00718096 0.0107714
0.00075589 -0.00359048 0.00566918
0.00812582 0.0502667 0.0228657
0.00888171 0.0614161 0.0156847
0.00113384 0.0171965 -0.00888171
-0.00661404 -0.0383614 -0.0264562
-0.00699199 -0.0478101 -0.0188973
0.00151178 0.0362827 -0.0149288
-0.000188973 -0.00604712 -0.0062361
0.00925966 -0.0041574 0.000566918
-0.00226767 -0.0143619 0.00736993
-0.000944863 -0.00774788 0.00793685
0.00377945 -0.00321253 0.00812582
0.00529123 -0.00774788 0.0105825
-0.00321253 -0.00377945 0.0062361
0.00075589 0.00699199 0.00359048
0.00680301 0.013795 0.00264562
0.00812582 0.00869274 0.00510226
0.0141729 -0.0122832 0.0111494
-0.0113384 -0.0270231 0.0124722
0.0198421 0.000944863 0.00661404
-0.000944863 -0.00604712 0.0122832
0.0200311 -0.0109604 0.00944863
-0.0368497 0.0151178 0.0239995
-0.0476211 0.0219208 0.0309915
0.0226767 -0.0190862 -0.0238105
0.0300466 -0.0236216 -0.0283459
0.013795 0.0846597 0.041574
0.0149288 0.105258 0.0296687
-0.0122832 -0.0731324 -0.0453534
-0.013795 -0.0890061 -0.0317474
-0.0241885 0.0631168 0.0814472
0.0153068 0.120753 -0.0799354
0.0130391 -0.0498888 -0.0487549
-0.0124722 0.000944863 0.00302356
0.0285349 -0.0168186 0.00680301
-0.00151178 -0.0107714 -0.0391173
-0.00774788 -0.00850377 0.00661404
-0.000944863 0.0103935 0.00226767
0.0105825 0.0230547 -0.000188973
0.0128501 0.013795 0.00453534
0.0179524 -0.00869274 0.00831479
Vibration 8
-0.020409 0.00396842 0.0132281
-0.0200311 -0.00434637 0.0154958
-0.013795 -0.00869274 0.00529123
-0.00774788 -0.00529123 0.00113384
-0.00736993 0.00359048 0.00472431
-0.0143619 0.00699199 0.00302356
0.000944863 0.00869274 0.0120942
-0.0147399 0.013795 -0.013984
-0.0153068 0.0190862 -0.0306136
-0.0221098 0.00472431 0.0164406
-0.00151178 -0.00907068 0.00151178
0.0126612 -0.0166296 -0.00566918
0.00548021 -0.0100155 0.00226767
-0.0224877 0.00774788 0.0228657
-0.0359048 0.0151178 0.0298577
0.0285349 -0.0228657 -0.0120942
-0.013606 -0.0096376 -0.00151178
-0.00680301 -0.00491329 -0.00340151
-0.00661404 0.0162516 -0.00321253
-0.013606 0.0321253 -0.00151178
-0.0202201 0.0187083 -0.00340151
-0.0200311 -0.00283459 -0.00359048
-0.0143619 0.0672742 0.00302356
0.0372276 -0.0260782 -0.0168186
0.013984 0.00226767 0.000377945
0.0268341 0.0160627 -0.00850377
0.0187083 -0.00226767 -0.0020787
0.00850377 -0.0134171 -0.000377945
-0.00113384 -0.00982658 -0.00113384
0.0221098 -0.0096376 0.00113384
0.0149288 -0.0289128 0.0062361
0.00510226 -0.0391173 0.00718096
0.00245664 -0.0308025 0.00321253
0.00585815 -0.0158737 -0.00132281
0.0432747 0.041574 -0.0213539
0.0166296 -0.0105825 -0.00566918
-0.0255113 -0.0075589 0.0228657
0.0132281 -0.013984 -0.00377945
0.00491329 -0.0147399 -0.00566918
0.0306136 -0.0287238 -0.0188973
-0.0325033 0.0154958 0.0325033
-0.0555579 0.0281569 0.0444086
-0.00151178 -0.0149288 -0.00377945
-0.00132281 0.0222988 -0.00377945
-0.0253223 0.0270231 -0.00359048
-0.0253223 -0.0122832 -0.00453534
-0.041385 0.0839038 0.0366607
0.0062361 0.103935 -0.0164406
-0.00831479 0.0459203 -0.00642507
0.0634948 -0.0417629 -0.034771
0.0100155 -0.041385 -0.0188973
0.0466762 0.000944863 -0.00170075
0.0304246 -0.000188973 -0.000377945
0.0170075 -0.0355268 0.00944863
-0.000188973 -0.0536682 0.0107714
-0.0041574 -0.0376055 0.00340151
0.00699199 -0.0115273 -0.00226767
Vibration 9
-0.00132281 0.00888171 -0.0062361
-0.00170075 0.00718096 -0.0188973
-0.00170075 0.00699199 -0.0181414
-0.000377945 0.00736993 -0.0196532
-0.00075589 0.00831479 -0.0096376
-0.000944863 0.00888171 0.00529123
-0.000944863 0.00774788 -0.0143619
0.000377945 0.00718096 0.0404401
0.00188973 0.00434637 0.0750221
-0.00075589 0.00869274 -0.00170075
0.0170075 -0.00302356 -0.0145509
0.0243775 -0.00699199 -0.0160627
0.0124722 0.00302356 -0.00359048
-0.00869274 0.0173855 0.0119053
-0.0143619 0.020409 0.0124722
0.0245664 -0.00396842 -0.00869274
-0.0020787 0.00510226 -0.00888171
-0.0145509 0.0498888 0.0156847
-0.0154958 0.0445975 0.0262672
-0.00453534 -0.00774788 0.0117163
0.0075589 -0.0515895 -0.0115273
0.00793685 -0.0434637 -0.0215429
-0.00510226 -0.0154958 0.0224877
0.00831479 0.00812582 0.00585815
-0.00188973 0.00888171 -0.00812582
-0.000944863 -0.00396842 -0.000944863
-0.0041574 -0.0151178 -0.000377945
0.00170075 -0.00188973 -0.013606
0.00283459 0.00585815 -0.0187083
-0.0120942 -0.0377945 0.013606
-0.0130391 -0.0444086 0.0124722
-0.00340151 -0.0249444 -0.00472431
0.00396842 -0.00321253 -0.0179524
-0.00226767 0.0103935 -0.0179524
0.00075589 -0.00510226 0.00396842
-0.00510226 0.0171965 -0.00434637
-0.00245664 0.00680301 -0.0230547
-0.00245664 0.0107714 -0.0132281
0.0257003 -0.00944863 -0.0228657
0.0394953 -0.0179524 -0.0266451
-0.0200311 0.0260782 0.0224877
-0.0291018 0.0313695 0.0226767
-0.0238105 0.0890061 0.0257003
-0.0249444 0.0808803 0.0453534
0.0164406 -0.0920297 -0.0222988
0.0168186 -0.0746442 -0.0387394
0.000188973 -0.0171965 0.0238105
-0.00188973 -0.0185193 0.0272121
-0.013984 -0.0153068 0.0257003
0.0226767 -0.000944863 -0.00245664
-0.0188973 0.0160627 -0.00548021
0.0109604 0.0170075 0.0349599
-0.0177634 -0.0498888 0.0253223
-0.020598 -0.0636838 0.0245664
-0.00226767 -0.027401 -0.00774788
0.0113384 0.0119053 -0.0311805
-0.00377945 0.0111494 -0.0151178
Vibration 10
0.000944863 -0.0041574 -0.027401
0.00075589 0.0020787 -0.0326923
-0.00491329 0.00510226 -0.0143619
-0.00944863 0.00283459 0.00642507
-0.0103935 -0.0020787 0.0173855
-0.00434637 -0.00680301 -0.00661404
-0.013606 -0.000944863 0.0544241
-0.00510226 -0.0171965 -0.0145509
-0.00585815 -0.0283459 -0.0247554
0.0103935 -0.00944863 -0.0321253
-0.000566918 -0.013984 -0.0196532
0.00113384 -0.0153068 -0.0075589
0.013606 -0.0109604 -0.0075589
0.0332592 -0.0107714 -0.0258892
0.0311805 -0.0103935 -0.0383614
0.00680301 -0.00888171 0.0124722
-0.00529123 0.00680301 -0.00812582
-0.0145509 0.0272121 0.00510226
-0.0153068 0.0217318 0.0128501
-0.00718096 -0.00566918 0.00699199
0.00170075 -0.0241885 -0.00491329
0.0020787 -0.0166296 -0.0120942
-0.0075589 -0.0154958 0.0143619
-0.0230547 0.0221098 0.0476211
-0.0115273 -0.00321253 0.0268341
0.0141729 0.0313695 0.00434637
0.0105825 0.0179524 0.00491329
-0.00340151 0.00151178 0.00869274
-0.0124722 0.00434637 0.00831479
0.0217318 0.0213539 0.000566918
0.0170075 0.00585815 0.00264562
0.00151178 -0.0130391 0.00850377
-0.00793685 -0.013984 0.0109604
-0.0151178 0.00491329 0.00774788
0.0406291 0.0719986 -0.0160627
-0.0230547 -0.0253223 0.0109604
0.00548021 0.00453534 -0.0491329
-0.020976 0.00359048 0.00718096
-0.0126612 -0.0162516 -0.0181414
-0.00907068 -0.0177634 0.00321253
0.0491329 -0.0105825 -0.0302356
0.0449755 -0.0096376 -0.0514005
-0.0213539 0.0468652 0.00850377
-0.0222988 0.0381725 0.0228657
0.00831479 -0.0444086 -0.00869274
0.00869274 -0.0294797 -0.020787
-0.000566918 -0.0181414 0.0151178
-0.00774788 -0.0190862 0.0175745
-0.0145509 -0.0166296 0.0166296
-0.0421409 0.0287238 0.0723765
-0.0168186 0.0633058 0.0328812
-0.0325033 -0.00396842 0.0642507
0.0340151 0.0366607 -0.00434637
0.0255113 0.00831479 -0.000377945
-0.00264562 -0.0262672 0.0105825
-0.0179524 -0.0257003 0.013984
-0.0190862 0.0020787 0.0096376
Vibration 11
-0.0147399 0.00132281 -0.0336371
-0.0143619 -0.00585815 -0.0506447
-0.00925966 -0.00944863 -0.0249444
-0.00359048 -0.00529123 0.00472431
-0.00359048 0.00113384 -0.00869274
-0.0096376 0.00377945 -0.0120942
0.00472431 0.00472431 -0.0164406
-0.00831479 0.00812582 0.0149288
-0.00699199 0.0105825 0.041385
-0.0149288 0.00132281 -0.0249444
-0.00831479 -0.0168186 -0.0249444
0.00283459 -0.0230547 -0.013795
0.00548021 -0.00850377 -0.00170075
-0.00472431 0.0124722 0.00151178
-0.0143619 0.0168186 -0.0107714
0.020787 -0.0188973 0.00736993
-0.0096376 -0.013795 -0.020787
-0.0164406 -0.0153068 -0.0181414
-0.0173855 -0.0075589 -0.00736993
-0.0120942 0.00226767 0.00075589
-0.00529123 -0.00188973 -0.00453534
-0.00453534 -0.00982658 -0.0153068
-0.0132281 0.0183303 0.0158737
0.0166296 0.00170075 0.0281569
0.0185193 0 -0.000377945
-0.000566918 -0.0105825 0.00793685
0.00434637 0.0075589 0.00718096
-0.00132281 -0.00793685 0.0245664
0.00132281 -0.0120942 0.0272121
0.0141729 0.0408181 -0.0130391
0.0175745 0.0555579 -0.0130391
0.00642507 0.0308025 0.0109604
-0.00340151 -0.00188973 0.0302356
0.0313695 -0.0134171 0.0357158
-0.0183303 -0.034771 0.0156847
0.0423299 0.00340151 0.00907068
-0.0192752 -0.00850377 -0.0767229
0.0455424 -0.00888171 0.034771
-0.0115273 -0.0268341 -0.0330702
0.00944863 -0.0387394 -0.0147399
-0.00434637 0.0249444 0.0124722
-0.020409 0.0326923 -0.0100155
-0.020976 -0.0215429 -0.0239995
-0.0221098 -0.0075589 -0.00491329
-0.00075589 0.00264562 0.00075589
0.000188973 -0.0120942 -0.0187083
-0.0222988 0.0217318 0.013984
0.00151178 0.0187083 0.0245664
-0.0198421 0.0283459 0.0217318
0.0298577 -0.0115273 0.0328812
-0.00170075 0.0168186 0.0166296
0.020409 0.0130391 0.0498888
0.0196532 0.054991 -0.0287238
0.0279679 0.0846597 -0.0309915
0.00642507 0.0381725 0.013795
-0.0113384 -0.0200311 0.048188
0.0464873 0.00075589 0.0234326
Vibration 12
-0.0149288 0.00736993 0.0213539
-0.0141729 0.00321253 0.0313695
-0.00944863 -0.000188973 0.020598
-0.00453534 0.00170075 0.00377945
-0.00396842 0.00680301 -0.00321253
-0.0100155 0.0100155 0.00793685
0.00264562 0.00907068 -0.0236216
-0.0096376 0.0236216 0.00548021
-0.00907068 0.0404401 0.00529123
-0.00736993 0.00340151 0.0141729
-0.020409 0.0111494 0.0241885
0.00340151 -0.00170075 0.00396842
0.0359048 -0.0211649 -0.0228657
0.0491329 -0.0298577 -0.0325033
0.02759 -0.0181414 -0.0147399
0.0650066 -0.0370386 -0.0453534
-0.0096376 -0.00359048 0.0153068
-0.000944863 -0.0105825 0.00774788
0 -0.00793685 -0.00226767
-0.00869274 0.00264562 -0.00377945
-0.0175745 0.00812582 0.00283459
-0.0177634 0.00396842 0.0120942
-0.00812582 0.00888171 -0.0143619
-0.0672742 0.034204 0.0466762
0.0113384 0.00604712 -0.0132281
0.00226767 -0.00548021 -0.00529123
-0.000188973 -0.00642507 -0.00132281
0.00453534 0.000944863 -0.00585815
0.000377945 -0.00113384 -0.00340151
-0.00566918 -0.0149288 0.00434637
-0.0041574 -0.0132281 0.00264562
0.00377945 -0.000566918 -0.00548021
0.00774788 0.00566918 -0.00982658
0.00718096 -0.0109604 -0.00548021
-0.0041574 -0.0143619 -0.0020787
0.0221098 0.0109604 -0.00718096
-0.0168186 0.00151178 0.0428968
0.0158737 -0.00925966 -0.00982658
-0.0491329 0.0270231 0.0468652
-0.00453534 0.00359048 0.0096376
0.0782347 -0.0474321 -0.0563138
0.0394953 -0.0260782 -0.0232436
0.00566918 -0.0175745 0.00944863
0.00736993 -0.013606 -0.00831479
-0.0239995 0.0154958 0.00132281
-0.0249444 0.00661404 0.0170075
-0.013606 0.0111494 -0.0145509
-0.0105825 0.0128501 -0.0192752
0.000377945 0.00793685 -0.0177634
-0.075778 0.0406291 0.0493218
-0.132659 0.122832 -0.00888171
-0.0848487 -0.0113384 0.162705
-0.0105825 -0.0230547 0.00982658
-0.00869274 -0.020598 0.00774788
0.0062361 0.00340151 -0.00812582
0.0120942 0.0130391 -0.0151178
0.00907068 -0.00774788 -0.00661404
Vibration 13
-0.00585815 -0.000188973 -0.0153068
-0.0062361 0.00302356 -0.00869274
-0.00982658 0.00510226 0.00982658
-0.0120942 0.00340151 0.0168186
-0.0128501 0.000377945 0.00170075
-0.0096376 -0.00151178 -0.00566918
-0.00774788 0.00340151 -0.00226767
-0.00982658 -0.0151178 0.00302356
-0.0100155 -0.0349599 0.0151178
-0.00226767 -0.00245664 -0.0202201
0.00075589 -0.0107714 -0.0202201
-0.000944863 -0.0102045 -0.0103935
-0.00529123 -0.000944863 -0.000944863
-0.00264562 0.00491329 -0.00491329
-0.00188973 0.00377945 -0.0143619
-0.0149288 0.00321253 0.0171965
-0.0103935 0.0119053 0.0132281
-0.0062361 0.00472431 0.0075589
-0.00529123 -0.00075589 -0.00113384
-0.0103935 0.00396842 -0.00245664
-0.0154958 0.0243775 0.00793685
-0.0156847 0.0260782 0.0151178
-0.00925966 -0.0173855 -0.0190862
0.0154958 -0.00226767 0.00680301
0.0224877 -0.00831479 0.000566918
0.00529123 0.000188973 -0.00132281
-0.0128501 -0.0190862 0.0239995
0.0075589 0.0145509 0
-0.0122832 0.00188973 0.0115273
-0.0332592 -0.0514005 0.0451645
-0.0113384 -0.0192752 0.0211649
0.0326923 0.0527234 -0.0279679
0.0379835 0.062172 -0.034771
0.0230547 -0.0298577 0.00812582
0.0177634 0.0319364 -0.0330702
0.0591484 -0.0239995 0.00359048
-0.00340151 0.00453534 -0.0164406
0.0394953 -0.0270231 -0.0100155
0.00302356 -0.0173855 -0.0268341
0 -0.0158737 -0.00925966
-0.00264562 0.0109604 0.000566918
-0.00170075 0.00888171 -0.0160627
-0.00264562 0.00075589 0.00831479
-0.000944863 -0.0107714 -0.00718096
-0.0192752 0.034771 0.00982658
-0.0198421 0.034582 0.020787
0.0041574 -0.0224877 -0.0166296
-0.0281569 -0.0188973 -0.0294797
-0.00283459 -0.0304246 -0.0260782
0.00831479 -0.00188973 0.0215429
0.0417629 -0.00869274 0.0173855
0.0166296 0 -0.0241885
-0.0606602 -0.096376 0.0754001
-0.0253223 -0.0442196 0.0376055
0.0599043 0.0956201 -0.0576366
0.0614161 0.102234 -0.0629279
0.0304246 -0.0245664 -0.000944863
Vibration 14
0.000944863 -0.00604712 -0.00434637
0.0020787 -0.0103935 -0.0234326
0.0103935 -0.0149288 -0.0158737
0.0175745 -0.00850377 0.0141729
0.0192752 -0.00661404 0.020598
0.0100155 -0.00245664 0.0103935
0.0100155 -0.0113384 0.0323143
0.0109604 0.0302356 -0.00113384
0.0119053 0.0797464 -0.0185193
-0.00548021 -0.00264562 -0.00075589
-0.00718096 -0.00340151 0.00113384
-0.00510226 -0.00472431 0.00170075
-0.00283459 -0.00472431 0.000944863
-0.00869274 0.000188973 0.00472431
-0.00907068 0.000377945 0.00302356
0.00850377 -0.0113384 -0.00529123
0.0113384 -0.0306136 -0.0245664
0.0062361 -0.0383614 -0.0245664
0.00510226 -0.0304246 -0.0130391
0.0109604 -0.0130391 -0.00132281
0.0175745 -0.0308025 -0.0115273
0.0177634 -0.0377945 -0.0226767
0.00869274 0.0357158 0.0294797
-0.00188973 -0.00434637 0.00321253
-0.0200311 -0.00113384 0.0122832
-0.0126612 0.00585815 0.00548021
-0.0185193 -0.0103935 0.00944863
-0.000944863 0.0111494 0.00075589
0.020976 -0.0075589 0.00642507
-0.0366607 -0.0232436 0.020787
-0.0249444 0.00736993 0.0117163
0.0062361 0.0514005 -0.0105825
0.0145509 0.048566 -0.0109604
-0.0117163 0 -0.00151178
0.00377945 0.0308025 -0.0062361
-0.0457314 -0.00548021 0.00302356
-0.00321253 -0.0134171 -0.0427078
-0.0228657 -0.0062361 -0.00245664
-0.00888171 -0.00359048 0.00170075
-0.0041574 -0.00642507 0.00132281
-0.0109604 0.00283459 0.00793685
-0.0107714 0.00264562 0.00396842
0.0020787 -0.0462983 -0.0309915
-0.000377945 -0.0317474 -0.0107714
0.0221098 -0.0319364 -0.00869274
0.0232436 -0.0425188 -0.027401
-0.0219208 0.0478101 0.0264562
0.0476211 0.0423299 0.0474321
-0.00132281 0.0602823 0.0417629
0.0134171 -0.0134171 -0.00718096
-0.0266451 -0.0020787 -0.00529123
0.00170075 0.00661404 0.0272121
-0.0582036 -0.0519675 0.0338261
-0.0383614 -0.000566918 0.0187083
0.0222988 0.0844708 -0.0251334
0.0323143 0.0714316 -0.0202201
-0.0190862 -0.0171965 0.00548021
Vibration 15
-0.00680301 -0.00226767 -0.0194642
-0.00529123 -0.00604712 0.0134171
-0.000944863 -0.0096376 0.0355268
0.00226767 -0.00793685 0.0187083
0.00472431 -0.00283459 0.00340151
-0.00226767 -0.00075589 -0.00869274
0.00548021 -0.00321253 -0.00604712
-0.000377945 0.0309915 0.00510226
0.00264562 0.0842818 0.0289128
0.00075589 -0.00661404 -0.0402512
0.0160627 -0.0249444 -0.0478101
0.0177634 -0.0272121 -0.034393
0.00132281 -0.00642507 -0.0115273
0.00793685 0.0020787 -0.0198421
0.00491329 0.00170075 -0.0328812
-0.0311805 0.00869274 0.0372276
-0.00132281 -0.00718096 0.0440306
0.0179524 -0.00283459 0.034771
0.020787 0.00321253 0.0120942
0.00245664 0.00529123 -0.000188973
-0.0181414 0.00869274 0.0117163
-0.0185193 0.000944863 0.0338261
0.00472431 0.00264562 -0.0357158
0.0281569 0.00377945 0.0232436
-0.00718096 0.00151178 -0.00453534
0.00170075 -0.000944863 -0.00434637
0.00548021 0.00245664 -0.00982658
0.00377945 -0.00113384 -0.00548021
0.00510226 -0.00699199 -0.0020787
0.00585815 0.00302356 -0.0100155
-0.00151178 -0.00736993 -0.00188973
-0.00642507 -0.0162516 0.00510226
-0.0020787 -0.0103935 0.00132281
-0.0213539 -0.0120942 -0.0130391
0.00075589 -0.00604712 0.00302356
-0.0247554 0.0075589 -0.00699199
-0.00812582 -0.00774788 0.020409
-0.0239995 -0.0147399 -0.0162516
0.0236216 -0.0372276 -0.0608492
0.0270231 -0.0408181 -0.0385504
0.0107714 0.0111494 -0.0124722
0.00359048 0.0113384 -0.034393