[Molden Format]
[FREQ]
-207.4
13.0
24.1
26.3
28.2
33.5
39.1
44.9
50.3
56.7
58.9
78.7
85.1
93.4
115.2
124.5
137.2
141.9
148.2
157.1
168.7
182.6
185.2
202.4
220.5
234.2
243.2
254.5
270.1
298.7
317.3
322.8
341.2
347.2
350.2
357.0
357.9
370.8
392.3
419.9
459.8
470.7
487.7
495.1
520.7
526.9
533.5
549.8
561.2
584.9
588.9
606.3
609.8
613.6
622.4
638.6
653.3
665.5
682.6
689.6
694.1
717.7
730.4
752.6
789.4
793.9
806.8
828.9
845.8
865.4
882.6
883.1
898.0
901.1
934.3
948.7
950.7
971.4
1001.2
1010.0
1010.6
1018.2
1018.3
1022.6
1033.5
1042.9
1049.0
1070.5
1080.8
1086.9
1103.4
1118.5
1126.1
1137.4
1177.0
1178.1
1179.7
1181.4
1185.3
1207.4
1242.2
1247.1
1262.0
1265.6
1268.4
1269.5
1273.7
1282.1
1286.2
1293.1
1300.8
1311.0
1326.5
1329.9
1332.5
1344.6
1350.0
1351.2
1353.0
1365.9
1378.1
1382.5
1394.2
1424.1
1429.4
1480.3
1510.0
1518.9
1523.7
1533.9
1558.1
1582.9
1586.0
1628.3
1695.1
1696.5
1697.3
1699.0
1702.1
1706.2
1714.9
1722.7
1897.2
2451.1
2651.2
2653.8
2665.2
2671.7
2694.8
2735.6
2737.4
2741.7
2742.3
2744.7
2745.1
2746.2
2748.1
2755.2
2757.4
2760.1
2764.1
2765.3
2767.1
2769.1
2778.9
       
[FR-COORD]
C -2.02824 -2.71384 -1.0008
C 0.648932 -2.71384 -1.0008
C 1.95738 -0.466951 -1.0008
N 0.684837 1.7977 -0.966973
C -1.97949 1.93716 -0.780079
C -3.32044 -0.442952 -0.902155
N -2.87087 4.20237 -0.338828
C -5.99119 -0.353946 -0.915383
N -8.17911 -0.305191 -0.921241
C -3.33877 -5.14856 -1.09585
C -2.759 -6.85971 -3.03679
C -3.98052 -9.16838 -3.17058
C -5.79239 -9.76837 -1.31978
C -6.37764 -8.09804 0.635515
C -5.141 -5.77859 0.725844
O -6.83306 -12.0829 -1.66655
C 4.73717 -0.361127 -0.977744
C 6.0218 -0.998909 1.23758
C 8.64323 -0.836582 1.3143
C 9.98852 -0.0561249 -0.822598
C 8.69123 0.54084 -3.04567
C 6.06886 0.390228 -3.12731
C 12.7963 0.115462 -0.738883
C -8.78231 -12.8271 0.0270231
C -4.93729 5.46225 -1.44961
C -1.86176 5.90728 2.77676
C 0.954123 5.9258 3.07742
C 2.74407 5.38704 1.23097
C 2.08191 4.23336 -1.20073
C 1.78863 6.9198 5.39082
C 4.33938 7.3705 5.81336
C 6.11345 6.86462 3.92175
C 5.31504 5.88669 1.62346
O 2.63314 4.88891 -3.28283
O -3.09915 4.49755 4.37906
O -5.9961 7.17038 -0.0939194
H 1.66655 -4.50322 -1.00628
H -2.29469 3.14564 5.34622
H -1.35267 -6.3542 -4.45994
H -3.57687 -10.5139 -4.6697
H -7.77584 -8.56329 2.06094
H -5.58962 -4.44671 2.23857
H 4.97262 -1.6074 2.90432
H 9.64705 -1.31525 3.04378
H 9.73303 1.13308 -4.71789
H 5.05275 0.878156 -4.85867
H 13.5149 0.505124 1.17031
H 13.5369 1.60986 -1.97798
H 13.6646 -1.67203 -1.36004
H -9.30955 -14.6956 -0.710537
H -10.3901 -11.5288 -0.0784236
H -8.05911 -12.99 1.95719
H 0.409126 7.36029 6.85895
H 4.96469 8.13187 7.62183
H 8.1073 7.24143 4.24962
H 6.6815 5.49381 0.12869
H -5.49627 7.53604 1.67297

[FR-NORM-COORD]
Vibration 1
-0.00359048 0.0154958 -0.00453534
-0.00718096 0.00075589 -0.0041574
0.00585815 -0.00453534 -0.00491329
0.00907068 -0.00226767 -0.00680301
0.034393 0.00699199 0.0731324
0.0102045 0.0334482 0.0143619
0.0633058 0.0366607 0.202768
0.00831479 0.02759 0.00944863
0.00831479 0.00888171 -0.000566918
-0.00718096 0.0168186 -0.00642507
-0.00321253 0.0111494 -0.00170075
0.0020787 0.00831479 0.00113384
0.00170075 0.00604712 0.00075589
0.00132281 0.00831479 -0.000944863
-0.00434637 0.0115273 -0.00453534
0.00340151 0.00604712 0.00113384
0.00359048 -0.00680301 -0.00566918
0.00132281 -0.00264562 -0.00264562
0.00075589 -0.000377945 -0.00075589
0.00188973 -0.00075589 -0.000566918
0.00359048 -0.00188973 -0.00188973
0.0041574 -0.00472431 -0.00453534
0.00151178 0.000566918 0.000944863
0.00302356 0.00359048 0.000377945
0.0234326 -0.0491329 0.101289
-0.0168186 -0.111872 -0.168564
-0.0313695 -0.0359048 -0.0602823
0.0158737 -0.00396842 -0.0279679
0.0296687 0.00491329 -0.0198421
-0.0587705 -0.027401 -0.0470542
-0.0680301 -0.00944863 -0.0145509
-0.0294797 0.00907068 0.0111494
0.00812582 0.0156847 -0.00075589
0.00680301 -0.020976 -0.0313695
-0.0325033 0.00982658 -0.0149288
0.0134171 0.0124722 0.00396842
-0.0130391 -0.00453534 -0.00529123
-0.00529123 0.0519675 0.00604712
-0.00359048 0.0096376 -0.00283459
0.00585815 0.00718096 0.00283459
0.00396842 0.00642507 0.00188973
-0.00699199 0.0109604 -0.00396842
0.000566918 0.00151178 -0.00132281
-0.000188973 0.00377945 0.00132281
0.00453534 0.000188973 -0.000566918
0.00604712 -0.00529123 -0.00566918
0.000377945 0.00151178 0.00151178
0.00170075 0.00113384 0.00151178
0.00321253 0.00113384 0.00170075
0.00510226 0.00359048 -0.00113384
0.0020787 0.00226767 0.000377945
0.00264562 0.00302356 0.000566918
-0.0854156 -0.0417629 -0.0682191
-0.0971319 -0.00850377 -0.00472431
-0.0389284 0.0215429 0.0445975
0.0247554 0.0315584 0.0119053
0.0396842 0.119809 -0.0171965
Vibration 2
0.00491329 0.00510226 -0.00680301
0.00472431 0.00548021 -0.0126612
0.00472431 0.00585815 -0.0119053
0.00472431 0.00548021 -0.00736993
0.00434637 0.00529123 -0.0117163
0.00472431 0.00510226 -0.00736993
0.00283459 0.0062361 -0.0187083
0.00472431 0.00491329 -0.00321253
0.00472431 0.00491329 0.000188973
0.00491329 0.00472431 0.00151178
-0.00075589 0.000377945 0.00377945
-0.000188973 -0.000377945 0.0134171
0.00604712 0.00321253 0.020787
0.0113384 0.00793685 0.0183303
0.0105825 0.00869274 0.00850377
0.0062361 0.00170075 0.0300466
0.00472431 0.00434637 -0.0175745
0.0102045 -0.0100155 -0.0249444
0.0107714 -0.013984 -0.0315584
0.00566918 -0.00377945 -0.0309915
0.000188973 0.0111494 -0.0238105
-0.000377945 0.0153068 -0.0170075
0.0062361 -0.00925966 -0.0381725
0.0128501 0.00472431 0.0389284
0.013606 0.00831479 -0.0349599
-0.0154958 0.00831479 -0.0120942
-0.0179524 -0.0105825 0.0128501
-0.0062361 -0.00982658 0.0239995
0.00566918 0.00718096 0.0124722
-0.0309915 -0.0281569 0.0251334
-0.0319364 -0.0447865 0.047999
-0.0196532 -0.0440306 0.0595264
-0.00661404 -0.0266451 0.0474321
0.0151178 0.020409 0.0192752
-0.0394953 0.0194642 -0.020976
0.0103935 0.0164406 -0.0476211
0.00510226 0.00566918 -0.0170075
-0.0576366 0.0151178 -0.0119053
-0.00566918 -0.00245664 -0.0020787
-0.00453534 -0.00396842 0.0153068
0.0158737 0.0109604 0.0238105
0.0147399 0.0122832 0.00661404
0.0141729 -0.0183303 -0.0255113
0.0151178 -0.0255113 -0.0374166
-0.00396842 0.0194642 -0.0234326
-0.00472431 0.0268341 -0.0113384
0.0115273 -0.0105825 -0.0398732
0.00642507 -0.0107714 -0.0398732
0.00113384 -0.0109604 -0.0400622
0.0119053 0.0020787 0.0459203
0.0113384 0.00283459 0.0410071
0.0196532 0.0105825 0.0368497
-0.0402512 -0.0287238 0.0166296
-0.0421409 -0.0583925 0.0572587
-0.0202201 -0.0570697 0.0774788
0.00321253 -0.0258892 0.0561249
0 0.020787 -0.0457314
Vibration 3
0.0020787 -0.00453534 0.020787
0.00188973 -0.00359048 0.0120942
0.00113384 -0.00321253 0.0134171
0.000944863 -0.00340151 0.0171965
0.000944863 -0.00396842 0.0185193
0.00188973 -0.00529123 0.0338261
-0.00170075 -0.00132281 -0.00075589
0.00151178 -0.00793685 0.061794
0.00151178 -0.0105825 0.0891951
0.00321253 -0.00491329 0.00907068
-0.00925966 0.0168186 -0.013984
-0.0096376 0.0181414 -0.0315584
0.00340151 -0.00283459 -0.0257003
0.0171965 -0.0253223 -0.00245664
0.0168186 -0.0257003 0.0149288
0.00075589 0.00113384 -0.0455424
0.00132281 -0.00548021 0.00718096
0.00604712 -0.0041574 0.00472431
0.00699199 -0.0134171 -0.00396842
0.00302356 -0.0239995 -0.0103935
-0.0020787 -0.0230547 -0.00718096
-0.00283459 -0.013606 0.00170075
0.0041574 -0.0368497 -0.020976
0.0117163 -0.0181414 -0.041574
-0.000944863 -0.0147399 -0.0175745
-0.00510226 0.041385 -0.0171965
-0.00604712 0.0287238 -0.00642507
-0.00226767 0.00736993 0.00359048
0.000566918 -0.0041574 0.00812582
-0.00925966 0.041574 -0.0105825
-0.00869274 0.0325033 -0.00491329
-0.00453534 0.0100155 0.00491329
-0.00132281 -0.00283459 0.00925966
0.00396842 -0.013984 0.00585815
-0.0196532 0.068975 -0.00453534
-0.00359048 0.000566918 -0.0393063
0.00245664 -0.00340151 0.00510226
-0.0319364 0.0748331 0.0141729
-0.0192752 0.0332592 -0.0179524
-0.0198421 0.0351489 -0.0496998
0.027779 -0.0419519 0.00245664
0.0270231 -0.0425188 0.0326923
0.00925966 0.00321253 0.00944863
0.0107714 -0.0132281 -0.00604712
-0.00529123 -0.0300466 -0.0117163
-0.00680301 -0.0132281 0.00396842
0.0132281 -0.0408181 -0.0236216
0.00604712 -0.0396842 -0.0232436
-0.00642507 -0.0404401 -0.0249444
0.00510226 -0.00850377 -0.0610381
0.0120942 -0.0154958 -0.0143619
0.0249444 -0.0427078 -0.048566
-0.0122832 0.0587705 -0.0185193
-0.0113384 0.0427078 -0.00831479
-0.00377945 0.00264562 0.00925966
0.00226767 -0.020409 0.0170075
-0.00699199 0.0215429 -0.0428968
Vibration 4
0.000188973 -0.00510226 -0.0041574
0.000188973 -0.00548021 -0.013606
-0.000188973 -0.00529123 -0.013795
-0.00132281 -0.00548021 -0.0164406
0 -0.00510226 -0.00510226
0 -0.00529123 0.00472431
0.00188973 -0.00377945 -0.00510226
-0.000188973 -0.00680301 0.0262672
-0.000188973 -0.00812582 0.0462983
-0.00188973 -0.0041574 -0.00170075
-0.0236216 0.00529123 -0.0164406
-0.0291018 0.00812582 -0.0166296
-0.0117163 0.00132281 -0.00170075
0.0115273 -0.00850377 0.013795
0.0162516 -0.0109604 0.013606
-0.020409 0.00566918 -0.00434637
-0.000566918 0.000944863 -0.00472431
-0.00888171 0.00302356 0.00075589
-0.0107714 0.0243775 0.0177634
-0.00396842 0.0440306 0.0291018
0.00529123 0.0366607 0.0219208
0.00699199 0.0147399 0.00472431
-0.00642507 0.0738883 0.0500777
-0.00510226 0.000377945 0.0109604
0.00075589 -0.00699199 -0.00680301
0.0113384 0.00774788 -0.0170075
0.0111494 -0.0130391 -0.0122832
0.00831479 -0.0162516 -0.0141729
-0.00188973 -0.00453534 -0.0168186
0.0175745 -0.0292908 -0.00774788
0.020787 -0.0491329 -0.00510226
0.0177634 -0.0521564 -0.00718096
0.0115273 -0.0357158 -0.0120942
-0.0130391 0.00245664 -0.0171965
-0.0020787 0.0272121 -0.00982658
0.0075589 0.00302356 -0.0143619
-0.000188973 -0.00548021 -0.0181414
-0.0143619 0.0245664 -0.00340151
-0.0368497 0.0105825 -0.02759
-0.0466762 0.0154958 -0.0279679
0.0257003 -0.0141729 0.0257003
0.0336371 -0.0183303 0.0251334
-0.0143619 -0.0105825 -0.0075589
-0.0175745 0.027401 0.0226767
0.0107714 0.0489439 0.0296687
0.013984 0.00944863 -0.000944863
-0.0251334 0.0831479 0.05518
-0.0130391 0.0808803 0.0544241
0.0173855 0.08277 0.0582036
-0.0179524 0.00661404 0.00453534
-0.00264562 0.00548021 0.0357158
0.0143619 -0.013795 0.00245664
0.020598 -0.0264562 -0.00585815
0.0257003 -0.061983 -0.00151178
0.0202201 -0.0674632 -0.00510226
0.00907068 -0.0387394 -0.013606
0.0130391 0.0130391 -0.0179524
Vibration 5
-0.0158737 0.0153068 -0.0183303
-0.0158737 0.0115273 -0.0196532
-0.0124722 0.0096376 -0.0124722
-0.00925966 0.0111494 -0.0100155
-0.00888171 0.0143619 -0.00604712
-0.0126612 0.0164406 -0.0100155
-0.00472431 0.0145509 0.00188973
-0.0126612 0.0188973 -0.0020787
-0.0126612 0.0202201 0.00548021
-0.013606 0.0141729 -0.0198421
-0.0194642 0.0211649 -0.027779
-0.00264562 0.0117163 -0.0185193
0.020976 -0.00491329 -0.00075589
0.020787 -0.00812582 0.00188973
0.00283459 0.0020787 -0.00812582
0.0434637 -0.0168186 0.0122832
-0.0122832 0.00113384 -0.00226767
-0.0251334 -0.0196532 -0.000566918
-0.0245664 -0.0362827 0.0111494
-0.0111494 -0.0321253 0.0211649
0.00132281 -0.00869274 0.0202201
0.00075589 0.00774788 0.00850377
-0.0102045 -0.0532903 0.0330702
0.0820141 -0.0449755 0.0440306
-0.00585815 0.0196532 0.00888171
0.00396842 0.00642507 0.00132281
0.00453534 0.00170075 -0.00302356
0.000566918 0.00340151 -0.00718096
-0.00548021 0.00907068 -0.00812582
0.0100155 -0.00491329 -0.0020787
0.0113384 -0.0100155 -0.00529123
0.00736993 -0.00812582 -0.00944863
0.0020787 -0.00132281 -0.0105825
-0.00793685 0.0115273 -0.00793685
0.00453534 0.00585815 0.00170075
-0.000188973 0.0185193 0.0145509
-0.0183303 0.0100155 -0.0247554
0.0041574 0.00283459 -0.00245664
-0.0359048 0.0330702 -0.0396842
-0.00566918 0.0158737 -0.0230547
0.0349599 -0.0187083 0.0122832
0.00302356 -0.000566918 -0.00566918
-0.0357158 -0.0236216 -0.00850377
-0.034582 -0.0532903 0.0122832
0.0117163 -0.00434637 0.0281569
0.0107714 0.0245664 0.00718096
-0.0151178 -0.0651955 0.0374166
0.0062361 -0.0548021 0.041196
-0.0211649 -0.0578256 0.0308025
0.101667 -0.0555579 0.0565028
0.0589595 -0.0718096 0.0651955
0.113762 -0.0283459 0.0334482
0.0130391 -0.0062361 0.00132281
0.0156847 -0.0153068 -0.00453534
0.00850377 -0.0119053 -0.0119053
-0.00113384 0.000188973 -0.013795
0.00434637 0.0145509 0.0141729
Vibration 6
-0.0105825 0.00377945 0.0141729
-0.0100155 0.00321253 0.0200311
-0.00907068 0.00226767 0.0105825
-0.00831479 0.00264562 0.00170075
-0.00699199 0.00434637 0.00888171
-0.00907068 0.00510226 0.00869274
-0.00453534 0.00566918 0.0111494
-0.00869274 0.0096376 -0.000566918
-0.00869274 0.0143619 -0.00888171
-0.00566918 0.00170075 0.00907068
0.0419519 -0.0149288 0.0368497
0.0557469 -0.0215429 0.0328812
0.0187083 -0.0122832 -0.000188973
-0.0315584 0.00472431 -0.0298577
-0.0427078 0.0107714 -0.0245664
0.0393063 -0.0213539 0.000944863
-0.00907068 0.00170075 0.00566918
-0.00453534 0.00812582 0.00491329
-0.00453534 0.00907068 -0.00075589
-0.00888171 0.00359048 -0.00548021
-0.0134171 -0.00321253 -0.00491329
-0.0134171 -0.00434637 0.00075589
-0.00888171 0.00548021 -0.0117163
0.00359048 -0.013606 -0.0364717
-0.00869274 -0.000188973 0.00982658
0.0109604 0.0298577 -0.0109604
0.0107714 0.00359048 -0.00529123
0.00718096 -0.00680301 -0.00585815
-0.00680301 0.00170075 -0.00585815
0.0190862 -0.0102045 -0.00245664
0.0234326 -0.0351489 -0.000566918
0.0194642 -0.0455424 -0.00132281
0.0113384 -0.0313695 -0.00453534
-0.020409 0.0041574 -0.00831479
-0.0062361 0.0600933 0.00321253
-0.00151178 0.0109604 0.00075589
-0.0100155 0.00302356 0.0302356
-0.0221098 0.0578256 0.0130391
0.0693529 -0.0222988 0.0612271
0.0944863 -0.034393 0.0546131
-0.0612271 0.0128501 -0.0561249
-0.0803134 0.0219208 -0.0453534
-0.00113384 0.0128501 0.00869274
-0.000944863 0.0143619 -0.00132281
-0.0168186 -0.00793685 -0.00850377
-0.0170075 -0.0100155 0.00113384
-0.00472431 0.00642507 -0.0134171
-0.0126612 0.00566918 -0.013795
-0.00907068 0.00585815 -0.0132281
0.0323143 -0.0251334 -0.027401
-0.00151178 -0.0241885 -0.089573
-0.041196 0.0130391 -0.0175745
0.0228657 -0.00132281 -0.00170075
0.0296687 -0.0462983 0.0020787
0.0228657 -0.0650066 0.000566918
0.00812582 -0.0400622 -0.00529123
0.00680301 0.0257003 -0.00472431
Vibration 7
-0.00944863 0.0020787 -0.00245664
-0.00907068 -0.0041574 0.00453534
-0.00548021 -0.00699199 0.00850377
-0.00075589 -0.0041574 0.00850377
-0.00075589 0.00188973 0.00132281
-0.00510226 0.00434637 -0.00396842
0.00340151 0.00340151 0
-0.00491329 0.00869274 -0.0117163
-0.00491329 0.0120942 -0.0187083
-0.0126612 0.00396842 -0.00793685
-0.0217318 0.0122832 -0.0179524
-0.0173855 0.0100155 -0.0179524
-0.00264562 -0.000944863 -0.00699199
0.00264562 -0.00699199 -0.000377945
-0.00283459 -0.00377945 -0.00113384
0.00510226 -0.00491329 -0.00510226
-0.00529123 -0.00566918 0.00699199
-0.00264562 0.0765339 0.0285349
-0.00283459 0.0865495 0.020598
-0.00699199 0.0130391 -0.00888171
-0.0102045 -0.0704868 -0.0294797
-0.00982658 -0.0780457 -0.0211649
-0.00736993 0.0255113 -0.0190862
0.0338261 -0.0257003 0.0187083
0.0120942 0.0134171 -0.00377945
0.00359048 -0.00340151 0.00529123
0.00340151 -0.0062361 0.00718096
0.00491329 -0.00699199 0.00869274
0.00944863 -0.0100155 0.00888171
0.00151178 -0.00680301 0.00812582
0.00113384 -0.00699199 0.0105825
0.00264562 -0.00604712 0.0117163
0.00453534 -0.00585815 0.0109604
0.0219208 -0.0181414 0.0096376
0.000944863 -0.00491329 0.00132281
0.0153068 0.0156847 -0.00377945
-0.0130391 -0.00642507 0.00642507
-0.00151178 -0.00699199 0.000566918
-0.0313695 0.0202201 -0.0245664
-0.0239995 0.0158737 -0.0249444
0.0113384 -0.0141729 0.00566918
0.00113384 -0.00812582 0.00359048
0.000377945 0.133226 0.0510226
-0.000377945 0.152312 0.0372276
-0.0126612 -0.128312 -0.0514005
-0.013984 -0.137383 -0.0349599
-0.00132281 0.0430858 -0.0253223
-0.0196532 0.0200311 -0.0334482
-0.00151178 0.0251334 -0.00944863
0.041574 -0.0292908 0.0221098
0.020598 -0.0400622 0.041385
0.0597153 -0.0224877 0.00925966
0.000188973 -0.00699199 0.00699199
-0.000377945 -0.00774788 0.0113384
0.00226767 -0.00529123 0.0130391
0.00566918 -0.00510226 0.0119053
0.0119053 0.0103935 -0.00188973
Vibration 8
-0.0105825 0.0020787 0.0062361
-0.0102045 0 -0.00793685
-0.0062361 -0.00226767 -0.0111494
-0.00321253 -0.000944863 -0.0128501
-0.00302356 0.00264562 -0.00774788
-0.00699199 0.00396842 0.0173855
0.00604712 0.00793685 -0.0198421
-0.00680301 0.0130391 0.0610381
-0.00680301 0.0245664 0.10488
-0.00812582 0.000944863 0.00661404
0.020409 -0.00869274 0.0226767
0.0302356 -0.0134171 0.0200311
0.00812582 -0.00888171 0
-0.0222988 0.000566918 -0.0173855
-0.0294797 0.00434637 -0.0132281
0.0215429 -0.0147399 -0.000188973
-0.0062361 -0.00453534 -0.00869274
-0.0103935 -0.00321253 -0.00585815
-0.0109604 0.00188973 0.000566918
-0.00736993 0.00510226 0.0041574
-0.00302356 0.00132281 0.000566918
-0.00264562 -0.00321253 -0.00585815
-0.00812582 0.0134171 0.0122832
-0.00359048 -0.00925966 -0.0268341
0.0417629 0.0455424 -0.0351489
-0.0075589 -0.0464873 0.0170075
-0.00736993 -0.0238105 0.00529123
-0.0096376 0.00075589 -0.00434637
-0.00132281 -0.00151178 -0.00585815
-0.00850377 -0.0257003 0.00661404
-0.0119053 0.00132281 -0.00264562
-0.0149288 0.0306136 -0.0132281
-0.013606 0.0300466 -0.0132281
0.0102045 -0.00226767 -0.00340151
0.00774788 -0.0850377 -0.00793685
0.0661404 0.0680301 -0.0427078
-0.0117163 -0.000944863 -0.0119053
0.0211649 -0.0869274 -0.0213539
0.0360938 -0.0120942 0.0368497
0.0540462 -0.020598 0.0328812
-0.0396842 0.00453534 -0.0330702
-0.0515895 0.00944863 -0.0239995
-0.0134171 -0.00529123 -0.00850377
-0.0143619 0.00377945 0.00302356
0 0.00283459 0.00283459
0.000566918 -0.00491329 -0.00812582
-0.0154958 0.020787 0.013606
-0.00850377 0.0122832 0.0105825
-0.000944863 0.0143619 0.0200311
0.0141729 -0.0158737 -0.0224877
-0.00585815 -0.0147399 -0.061983
-0.034582 0.00642507 -0.013795
-0.00718096 -0.047999 0.0145509
-0.0124722 0.000188973 -0.00188973
-0.0179524 0.0536682 -0.020976
-0.0156847 0.0523454 -0.020976
0.0576366 0.0515895 -0.0362827
Vibration 9
-0.0126612 -0.0062361 0.0020787
-0.0122832 -0.0156847 0.00831479
-0.00434637 -0.020598 0.0126612
0.00283459 -0.0160627 0.0217318
0.00283459 -0.00680301 0.0117163
-0.00510226 -0.0020787 0.00113384
0.0100155 -0.00340151 0.00869274
-0.00472431 0.00793685 -0.0164406
-0.00434637 0.0164406 -0.0336371
-0.0190862 -0.00283459 -0.00604712
-0.0175745 -0.000944863 -0.00736993
-0.013606 -0.00302356 -0.00793685
-0.0105825 -0.00774788 -0.00642507
-0.0179524 -0.00642507 -0.00982658
-0.0224877 -0.00377945 -0.0100155
0 -0.0130391 -0.00283459
-0.0041574 -0.0226767 0.00264562
0.00831479 -0.0472432 -0.0119053
0.00718096 -0.0253223 -0.0179524
-0.00642507 0.0219208 -0.00907068
-0.0177634 0.0364717 0.00151178
-0.0162516 0.0126612 0.00699199
-0.00869274 0.0595264 -0.0113384
0.0243775 -0.0323143 0.0168186
0.0221098 0.00548021 -0.0041574
0.0062361 0.00548021 0.00377945
0.00585815 0.0107714 0.00548021
0.00812582 -0.00907068 0.013795
0.0100155 -0.020787 0.0187083
0.00264562 0.0364717 -0.0041574
0.0020787 0.0394953 -0.00491329
0.00529123 0.0143619 0.00472431
0.00831479 -0.0100155 0.0141729
0.0170075 -0.0291018 0.0175745
0.00718096 0.0096376 0.00793685
0.0285349 0.0183303 -0.0156847
-0.0187083 -0.0192752 0.00604712
0.00869274 0.0149288 0.0143619
-0.0183303 0.00170075 -0.00718096
-0.0111494 -0.00188973 -0.00812582
-0.0196532 -0.0075589 -0.0119053
-0.0279679 -0.00302356 -0.0120942
0.0187083 -0.0805023 -0.0173855
0.0170075 -0.0427078 -0.0283459
-0.0281569 0.0682191 0.0062361
-0.0253223 0.0239995 0.0151178
-0.0119053 0.0525344 -0.00869274
-0.0306136 0.0806913 0.000944863
0.0154958 0.0771008 -0.0283459
0.0402512 -0.0404401 0.0258892
0.00812582 -0.0517785 0.02759
0.0432747 -0.0190862 0.0107714
0.000188973 0.0538572 -0.0117163
-0.000566918 0.0608492 -0.0130391
0.00529123 0.0147399 0.00453534
0.0107714 -0.0291018 0.0213539
0.0238105 0.0222988 -0.0149288
Vibration 10
-0.000944863 -0.000566918 -0.00774788
-0.000944863 -0.00132281 -0.0124722
0 -0.0020787 -0.00718096
0.00151178 -0.00113384 0.00151178
0.00151178 -0.000566918 0.000944863
0.000377945 0 -0.00132281
0.000944863 -0.00113384 0.0020787
0.000377945 0.0020787 0.00396842
0.000566918 0.00434637 0.00925966
-0.0020787 0 -0.00718096
0.000944863 -0.0041574 -0.00283459
0.00151178 -0.00472431 0.000377945
-0.00113384 -0.00113384 -0.00113384
-0.00510226 0.00340151 -0.0062361
-0.00529123 0.00359048 -0.00925966
0.00075589 -0.00264562 0.00340151
0.000188973 -0.00283459 -0.00831479
0.000188973 -0.00529123 -0.00812582
-0.00113384 -0.0020787 -0.00718096
-0.000188973 0.00340151 -0.00604712
0.00113384 0.00302356 -0.00548021
0.000188973 0 -0.00642507
-0.00075589 0.00245664 0.013795
0.000188973 -0.000377945 0.00377945
-0.0020787 -0.00377945 0.0041574
0.000566918 0.00359048 0.00170075
0.00075589 0.00377945 0.0020787
0.00170075 -0.00132281 0.00472431
0.00340151 -0.00226767 0.00453534
-0.00075589 0.00944863 0.000377945
-0.000944863 0.00888171 0.00151178
0.000566918 0.0020787 0.00472431
0.00188973 -0.00302356 0.00642507
0.0075589 -0.00245664 0.00548021
0.00113384 0.00434637 0.00264562
-0.00642507 -0.00869274 0.00661404
-0.00151178 -0.00170075 -0.0188973
0.00132281 0.00491329 0.00321253
0.00283459 -0.00699199 -0.00188973
0.00434637 -0.00793685 0.0041574
-0.00793685 0.00680301 -0.00774788
-0.00793685 0.00661404 -0.0124722
-0.000566918 -0.00907068 -0.0100155
0.000944863 -0.00283459 -0.00850377
-0.00113384 0.00604712 -0.00566918
0.000944863 0.00132281 -0.00661404
-0.05518 0.471298 -0.0600933
0.0540462 -0.315584 -0.335048
-0.00151178 -0.161572 0.484904
0.00396842 -0.00359048 0.00925966
-0.00170075 -0.00321253 -0.00226767
-0.00170075 0.00699199 0.00510226
-0.00188973 0.0141729 -0.0020787
-0.0020787 0.013795 -0.000188973
0.000566918 0.00132281 0.00548021
0.00302356 -0.00793685 0.00869274
-0.00736993 -0.0096376 0.00699199
Vibration 11
-0.0020787 -0.000188973 -0.0362827
-0.00151178 -0.00264562 -0.0548021
0.00170075 -0.00510226 -0.0317474
0.00699199 -0.00170075 -0.00396842
0.00718096 0.000566918 -0.00566918
0.00340151 0.00170075 -0.00982658
0.00377945 -0.00188973 -0.00377945
0.00340151 0.0100155 0.0243775
0.00359048 0.0196532 0.0587705
-0.00529123 0.00170075 -0.0304246
0.0075589 -0.0192752 -0.00831479
0.0096376 -0.0215429 0.00850377
-0.00340151 -0.00264562 0.00170075
-0.020409 0.0200311 -0.0226767
-0.0202201 0.0200311 -0.0379835
0.00283459 -0.00850377 0.0234326
0.0020787 -0.00831479 -0.0234326
-0.00944863 0.00170075 -0.013795
-0.0102045 0.00736993 0.000944863
0.000188973 0.00245664 0.00604712
0.0120942 -0.0119053 -0.00491329
0.0126612 -0.0168186 -0.0194642
-0.000944863 0.0151178 0.0215429
-0.00642507 0.00907068 0.020787
-0.0130391 -0.0168186 0.00907068
0.000566918 0.0111494 -0.0020787
0.00075589 0.0130391 0.00113384
0.00604712 -0.0041574 0.0119053
0.0168186 -0.00718096 0.00982658
-0.00680301 0.0300466 -0.00321253
-0.00774788 0.0266451 0.00491329
-0.00075589 0.00377945 0.0175745
0.00642507 -0.0111494 0.0215429
0.0385504 -0.00982658 0.0143619
0.00321253 0.00907068 -0.00132281
-0.0374166 -0.0453534 0.0255113
-0.00321253 -0.00359048 -0.0789905
0.00585815 0.0102045 -0.00188973
0.0168186 -0.034393 -0.00453534
0.0219208 -0.0379835 0.0266451
-0.0326923 0.0366607 -0.0291018
-0.0306136 0.034582 -0.0532903
-0.0177634 0.00585815 -0.0175745
-0.0196532 0.0166296 0.00888171
0.020976 -0.0177634 -0.00132281
0.0213539 -0.0245664 -0.0266451
-0.0075589 -0.0466762 0.0364717
-0.0075589 0.0631168 0.0750221
0.0115273 0.0421409 -0.0383614
0.00585815 -0.00377945 0.0447865
-0.0103935 0.00170075 -0.0103935
-0.0200311 0.0404401 0.0285349
-0.0124722 0.0457314 -0.0130391
-0.013795 0.0410071 0.000944863
-0.00075589 -0.00151178 0.0239995
0.0122832 -0.027401 0.0309915
-0.0421409 -0.0532903 0.0281569
Vibration 12
0.00132281 -0.00869274 -0.0338261
0.00075589 -0.00340151 -0.0487549
-0.00434637 -0.000377945 -0.0236216
-0.00831479 -0.00359048 0.00831479
-0.00850377 -0.00944863 0.0130391
-0.00283459 -0.0111494 -0.0096376
-0.00793685 -0.0122832 0.0332592
-0.00321253 -0.0200311 -0.0120942
-0.00340151 -0.0311805 -0.0192752
0.00736993 -0.0126612 -0.0268341
-0.00396842 -0.0196532 -0.0236216
0.000944863 -0.0239995 -0.00340151
0.0153068 -0.0196532 0.0119053
0.0300466 -0.0141729 0.0119053
0.0260782 -0.0117163 -0.00736993
0.0154958 -0.0230547 0.0325033
-0.00453534 0.00340151 -0.0173855
-0.0153068 0.0111494 -0.00869274
-0.0158737 0.00812582 0.00245664
-0.00566918 -0.00359048 0.00434637
0.00472431 -0.00869274 -0.00302356
0.00453534 -0.0041574 -0.013795
-0.00548021 -0.0113384 0.0154958
-0.0438416 0.0287238 -0.0124722
0.0122832 0.00566918 0.0164406
0.00113384 0.0100155 0.0179524
0.000188973 0.00491329 0.0154958
-0.00491329 -0.00226767 0.0126612
-0.0134171 0 0.013984
0.00680301 0.0173855 0.00812582
0.0075589 0.0228657 -0.00245664
0.00245664 0.0126612 -0.00472431
-0.00377945 -0.000566918 0.00321253
-0.0247554 0.00831479 0.013606
-0.00718096 0.0364717 0.0328812
0.0498888 0.0523454 -0.0132281
0.00510226 -0.000944863 -0.0744552
-0.0164406 0.0410071 0.0474321
-0.0175745 -0.0221098 -0.0377945
-0.00736993 -0.0292908 -0.00075589
0.0455424 -0.0130391 0.027401
0.0377945 -0.00812582 -0.00699199
-0.0236216 0.0188973 -0.0109604
-0.0239995 0.0141729 0.00888171
0.0130391 -0.0162516 -0.000377945
0.0120942 -0.00661404 -0.0187083
-0.0109604 -0.0222988 0.0198421
0.00264562 -0.00718096 0.0253223
-0.00793685 -0.0105825 0.0100155
-0.0644397 0.0351489 -0.013984
-0.0143619 0.0614161 -0.0606602
-0.0950532 0.0257003 0.00642507
0.0109604 0.0239995 0.0100155
0.0122832 0.034582 -0.00925966
0.00321253 0.0156847 -0.0126612
-0.00793685 -0.00850377 0.00151178
0.0582036 0.0740773 -0.0198421
Vibration 13
-0.0153068 0.0122832 0.00907068
-0.0153068 0.00359048 0.0115273
-0.00907068 -0.000944863 0.000566918
-0.0020787 0.00340151 -0.00831479
-0.00188973 0.0124722 -0.0103935
-0.00944863 0.0151178 -0.00302356
0.00359048 0.0149288 -0.0151178
-0.00925966 0.020976 -0.00548021
-0.00907068 0.0258892 -0.0075589
-0.0105825 0.00944863 0.0134171
-0.0194642 0.0255113 -0.00377945
0.00170075 0.0147399 0.000566918
0.0302356 -0.0103935 0.0202201
0.0404401 -0.0268341 0.0372276
0.0194642 -0.0147399 0.0336371
0.0534792 -0.0219208 0.0247554
-0.00907068 -0.00925966 -0.00245664
-0.00831479 -0.013984 -0.00434637
-0.00869274 -0.00907068 -0.0041574
-0.0105825 0.00075589 -0.00188973
-0.0109604 -0.00283459 -0.00264562
-0.0103935 -0.00831479 -0.00302356
-0.0117163 0.0173855 0.0020787
-0.034393 0.0185193 -0.0587705
-0.0041574 0.0154958 -0.00151178
0.00075589 -0.00396842 -0.0113384
0.00151178 0.00718096 -0.0113384
0.00774788 -0.00736993 -0.000566918
0.0141729 -0.00604712 -0.00321253
-0.0062361 0.0185193 -0.0134171
-0.0062361 0.00604712 -0.00113384
0.0020787 -0.0194642 0.0134171
0.00907068 -0.0241885 0.0130391
0.034582 -0.0128501 0
0.0143619 -0.0255113 -0.0175745
-0.0194642 -0.0109604 0.0194642
-0.020976 0 0.0200311
0.0281569 -0.0243775 -0.0279679
-0.0430858 0.0472432 -0.0194642
-0.00548021 0.0260782 -0.0115273
0.0665184 -0.0502667 0.054991
0.0268341 -0.0255113 0.0449755
-0.00718096 -0.0198421 -0.00585815
-0.00736993 -0.0111494 -0.00548021
-0.0119053 0.000377945 -0.0020787
-0.0113384 -0.00982658 -0.00302356
-0.0171965 0.0241885 0.00283459
-0.0188973 0.020598 0.00151178
0.000188973 0.0221098 0.00548021
-0.0457314 0.0319364 -0.0844708
-0.00132281 0.0544241 -0.120753
-0.116407 -0.00188973 -0.0296687
-0.0124722 0.0355268 -0.0241885
-0.0122832 0.0147399 -0.00264562
0.00302356 -0.034204 0.0243775
0.0153068 -0.0410071 0.0232436
-0.0236216 -0.0287238 0.0241885
Vibration 14
-0.00529123 0.00075589 -0.0020787
-0.00529123 -0.00245664 -0.00359048
-0.00188973 -0.00453534 0.000188973
0.00359048 -0.000566918 0.00982658
0.00283459 0.00170075 0.00264562
-0.00075589 0.00245664 0.000566918
-0.00264562 -0.00132281 -0.0041574
-0.000377945 0.00869274 -0.00302356
-0.000377945 0.0154958 -0.00642507
-0.00680301 0.00132281 -0.00321253
-0.0107714 0.00396842 -0.00680301
-0.00472431 0.000566918 -0.00245664
0.00510226 -0.00548021 0.00510226
0.00642507 -0.00661404 0.00642507
0.000566918 -0.00302356 0.00226767
0.0154958 -0.0115273 0.0130391
-0.00151178 -0.0124722 -0.00321253
-0.000188973 -0.0213539 -0.00661404
-0.000377945 -0.0160627 -0.00604712
-0.00245664 -0.000566918 -0.00170075
-0.00302356 -0.00151178 -0.00151178
-0.00264562 -0.00812582 -0.00245664
-0.00396842 0.020598 0.00377945
-0.0113384 0.00340151 -0.0111494
0.0041574 0.00302356 -0.00718096
0.00812582 0.0185193 0.0096376
0.00453534 -0.0311805 0.0183303
-0.00472431 0.0211649 -0.00718096
0.0154958 -0.00869274 0.00188973
0.0158737 -0.0837149 0.0372276
0.0117163 -0.0410071 0.0158737
-0.00491329 0.0651955 -0.0281569
-0.0128501 0.089951 -0.0357158
0.0640617 -0.0487549 0.000944863
-0.0423299 0.0653845 0.00793685
-0.0185193 -0.0190862 0.00340151
-0.0075589 -0.00377945 -0.00831479
-0.0890061 0.0436527 0.0183303
-0.0185193 0.00869274 -0.0128501
-0.00699199 0.0020787 -0.00453534
0.0132281 -0.0109604 0.0117163
0.00226767 -0.00434637 0.00359048
0.00113384 -0.0300466 -0.00907068
0.00075589 -0.0213539 -0.00831479
-0.00434637 0.00510226 0
-0.00359048 -0.00680301 -0.00188973
-0.0113384 0.0264562 0.00548021
-0.0132281 0.0266451 0.00548021
0.0115273 0.02759 0.00566918
-0.0096376 0.00321253 -0.0117163
-0.00396842 0.0103935 -0.0376055
-0.0381725 0.00699199 -0.00075589
0.0268341 -0.151745 0.0676522
0.020409 -0.0839038 0.0309915
-0.0115273 0.121698 -0.0534792
-0.0245664 0.16006 -0.0651955
-0.034771 -0.034393 0.0102045
Vibration 15
-0.00151178 0.00321253 0.0194642
-0.00226767 0.00925966 -0.0096376
-0.00944863 0.0120942 -0.0360938
-0.0111494 0.0115273 -0.0253223
-0.0117163 0.00812582 -0.00510226
-0.00529123 0.00188973 0.00869274
-0.0141729 0.00434637 0.00226767
-0.00585815 -0.0190862 -0.00377945
-0.00661404 -0.0515895 -0.0257003
0.0111494 -0.0041574 0.0385504
0.0311805 -0.00566918 0.0449755
0.0260782 -0.000944863 0.0266451
-0.000188973 0.00377945 0.00283459
0.00226767 -0.00907068 0.0143619
0.00604712 -0.0107714 0.0306136
-0.0368497 0.0281569 -0.0474321
-0.0096376 0.00661404 -0.0421409
-0.0285349 -0.000566918 -0.0326923
-0.0300466 -0.00566918 -0.0107714
-0.0122832 -0.0041574 0.00075589
0.00774788 -0.00642507 -0.0113384
0.00718096 -0.000377945 -0.0332592
-0.013795 0.00226767 0.0330702
0.0188973 -0.020598 -0.00548021
-0.00907068 0.0236216 0.0181414
-0.00188973 0.00566918 0.00396842
-0.00283459 0.00396842 -0.00283459
-0.00283459 -0.00283459 0