[Molden Format]
[FREQ]
-1292.3
17.9
28.6
30.8
33.5
42.6
44.8
48.4
61.7
74.5
78.8
91.0
125.6
129.6
136.9
141.7
156.5
180.2
182.0
194.7
215.5
223.3
243.0
255.4
258.3
282.2
293.8
305.7
315.7
324.8
336.4
357.5
360.8
368.0
384.3
392.7
413.5
439.6
467.9
477.3
481.7
499.4
517.9
522.9
535.2
546.3
555.4
568.4
589.0
599.2
613.8
616.8
625.4
646.3
654.5
667.8
678.4
694.8
699.6
712.0
729.1
754.7
762.7
785.0
806.0
821.6
831.4
850.7
874.3
881.7
882.7
893.1
902.0
904.3
945.0
949.5
953.4
973.7
1006.1
1010.0
1010.9
1013.2
1018.1
1023.8
1025.5
1033.3
1047.8
1062.6
1070.4
1081.3
1101.0
1118.7
1126.3
1156.7
1160.1
1177.7
1180.4
1184.7
1194.3
1200.8
1250.6
1261.8
1266.2
1268.7
1272.1
1278.7
1282.4
1286.2
1291.6
1294.1
1301.5
1306.1
1321.6
1325.7
1339.0
1348.4
1349.9
1360.8
1365.7
1367.6
1383.6
1395.5
1412.8
1426.7
1496.5
1505.9
1518.5
1527.9
1533.7
1549.5
1575.6
1591.8
1619.2
1664.9
1672.3
1690.1
1696.7
1696.8
1706.4
1708.3
1720.7
1723.7
1751.6
1955.2
2451.4
2651.3
2653.6
2665.4
2666.5
2672.6
2732.8
2737.9
2739.4
2744.6
2746.3
2746.9
2749.3
2751.5
2758.3
2760.7
2763.9
2765.2
2765.8
2768.9
2779.0
       
[FR-COORD]
C -2.43094 -2.77582 0.79463
C 0.233192 -2.77582 0.79463
C 1.59115 -0.535737 0.79463
N 0.34034 1.71682 0.780646
C -2.37236 1.837 0.879667
C -3.73637 -0.497754 0.796897
N -3.26923 4.15513 1.03122
C -6.40182 -0.373977 0.713183
N -8.58635 -0.267396 0.621153
C -3.75829 -5.20317 0.777244
C -3.16567 -7.00389 -1.0762
C -4.40949 -9.30425 -1.12836
C -6.25518 -9.80503 0.718096
C -6.85328 -8.04456 2.58911
C -5.5951 -5.7357 2.59648
O -7.3157 -12.1216 0.455046
C 4.36848 -0.570319 0.699577
C 5.80713 0.285349 2.73765
C 8.43252 0.248877 2.5825
C 9.62513 -0.646664 0.403834
C 8.17269 -1.53975 -1.61628
C 5.55069 -1.5114 -1.46775
C 12.4361 -0.668774 0.250767
C -9.27874 -12.7834 2.16695
C -1.14914 6.05733 1.16388
C 1.45263 4.28609 0.858314
C 2.68965 5.19391 -1.53805
C 1.08092 6.78147 -2.99163
C -1.34624 6.90695 -1.75121
C 5.14572 4.76948 -2.30754
C 5.99251 5.88026 -4.55613
C 4.40268 7.40376 -5.9961
C 1.92034 7.87279 -5.2164
O -3.51999 6.80415 -2.69551
O 3.00164 4.52778 2.92492
O -1.04766 7.62542 2.86974
H 1.2442 -4.5686 0.826566
H 2.18868 5.76669 4.14228
H -1.73099 -6.57719 -2.49595
H -3.99545 -10.7189 -2.55907
H -8.27606 -8.43479 4.01321
H -6.04996 -4.33295 4.04364
H 4.87625 0.999854 4.44048
H 9.55616 0.930312 4.16552
H 9.09487 -2.26106 -3.3057
H 4.4178 -2.20588 -3.04265
H 13.1349 -0.787449 -1.7
H 13.2192 -2.30263 1.27613
H 13.278 1.03481 1.09321
H -9.80938 -14.6801 1.508
H -10.8801 -11.4844 1.99385
H -8.56877 -12.8649 4.10732
H 6.41581 3.60805 -1.16785
H 7.92967 5.54578 -5.17426
H 5.09621 8.24828 -7.74013
H 0.678034 9.08391 -6.32775
H -4.74472 5.62647 -1.00231

[FR-NORM-COORD]
Vibration 1
0.00566918 -0.00661404 0.000566918
-0.0062361 -0.00188973 0
-0.00113384 0.00340151 0.00226767
-0.0185193 0 0.00680301
0.00472431 -0.0190862 -0.0249444
0.00170075 0.0117163 0.00075589
-0.0417629 0.0457314 -0.0576366
-0.00113384 -0.000188973 0
0.000377945 -0.000188973 0.000377945
0.000188973 0.000944863 0.000188973
0.000188973 -0.00075589 -0.000188973
0.000566918 0.000566918 -0.000188973
-0.000566918 -0.00132281 0
0.000188973 0.00075589 0.000188973
-0.000566918 0 0
0.000566918 0.000944863 0.000188973
-0.0020787 0.000944863 0.000377945
-0.000188973 0.000377945 0.000188973
-0.000377945 -0.000377945 0.000188973
0.000377945 0 0.000188973
-0.000944863 -0.000377945 0.000188973
-0.000377945 -0.000188973 0
-0.000377945 -0.000188973 0
-0.000188973 0 0.000377945
0.0255113 0.0362827 -0.034204
-0.00170075 0.0128501 0
-0.000377945 -0.00188973 -0.00302356
0.0147399 0.00188973 0.00226767
-0.0404401 0.00453534 -0.0285349
0.000188973 -0.000944863 0.000944863
0.000188973 0.00075589 -0.00151178
0.00302356 -0.00170075 0.00075589
-0.00188973 -0.000377945 0.00510226
0.048377 -0.00245664 0.0315584
-0.00264562 -0.0020787 0.000188973
-0.00113384 -0.00510226 0.00680301
0.00283459 -0.00283459 -0.00491329
-0.00283459 0.00699199 -0.00151178
-0.000566918 -0.00113384 -0.00226767
0 -0.000566918 -0.00151178
-0.000377945 -0.000188973 0.000944863
-0.000944863 -0.00170075 0.00151178
0.00283459 0.00321253 0.000377945
0 0.00170075 0
-0.000188973 0.00188973 -0.00170075
0.00132281 0.00340151 -0.00321253
0.000188973 0.000944863 -0.000566918
0.000944863 0.000377945 -0.000188973
0.000188973 0.000944863 -0.000566918
0.000566918 -0.000566918 -0.000944863
-0.000944863 -0.00075589 0
-0.000377945 -0.000944863 0.000377945
0.00151178 0.00491329 -0.00453534
-0.00264562 0.00075589 0.00170075
-0.00132281 -0.00132281 0.000566918
-0.00642507 -0.00510226 0.00604712
0.137383 -0.972831 1.03311
Vibration 2
-0.00585815 -0.00529123 -0.0215429
-0.00585815 -0.00510226 -0.0192752
-0.00604712 -0.00510226 -0.0179524
-0.00585815 -0.00491329 -0.0171965
-0.00604712 -0.00529123 -0.0255113
-0.00585815 -0.00510226 -0.0309915
-0.00661404 -0.00566918 -0.0224877
-0.00548021 -0.00548021 -0.0432747
-0.00491329 -0.00566918 -0.0548021
-0.00566918 -0.00548021 -0.00774788
-0.00340151 -0.0200311 0.00718096
-0.000188973 -0.0222988 0.0266451
0.000377945 -0.00925966 0.0309915
-0.00340151 0.0062361 0.0151178
-0.00642507 0.00793685 -0.00453534
0.00510226 -0.013795 0.0521564
-0.00604712 -0.00491329 -0.0179524
-0.00548021 -0.0156847 -0.013795
-0.00548021 -0.0153068 -0.0147399
-0.0062361 -0.00396842 -0.0196532
-0.00680301 0.00680301 -0.0239995
-0.00680301 0.00642507 -0.0232436
-0.0062361 -0.00340151 -0.020787
0.00888171 -0.00359048 0.0602823
-0.00718096 -0.00642507 -0.00075589
-0.00566918 -0.00548021 0.00170075
0.00736993 0.0100155 0.0145509
0.0160627 0.0211649 0.0170075
0.00907068 0.013795 0.0041574
0.0115273 0.0151178 0.0251334
0.0247554 0.0317474 0.0381725
0.0334482 0.0428968 0.0406291
0.0291018 0.0377945 0.0300466
0.0143619 0.0211649 -0.00925966
-0.0162516 -0.0183303 0.0113384
-0.0153068 -0.0177634 0.0102045
-0.00548021 -0.00491329 -0.0177634
-0.0226767 -0.0257003 0.0147399
-0.00377945 -0.0302356 0.00377945
0.00188973 -0.0338261 0.0389284
-0.00359048 0.0170075 0.0175745
-0.00888171 0.0198421 -0.0168186
-0.00510226 -0.0241885 -0.0100155
-0.00510226 -0.0238105 -0.0113384
-0.00736993 0.0156847 -0.0281569
-0.00718096 0.0147399 -0.0266451
-0.00699199 0.00925966 -0.0217318
-0.0062361 -0.0102045 -0.0317474
-0.00566918 -0.00907068 -0.00982658
0.0143619 -0.0117163 0.0791795
0.00453534 -0.0103935 0.0487549
0.0105825 0.0175745 0.0604712
0.00491329 0.00642507 0.0236216
0.0281569 0.0357158 0.0468652
0.0436527 0.0559359 0.0510226
0.0357158 0.0464873 0.0323143
0.00793685 0.00283459 -0.0260782
Vibration 3
-0.0128501 0.0124722 -0.0151178
-0.0130391 0.00812582 -0.0213539
-0.0096376 0.00604712 -0.0126612
-0.00642507 0.00774788 -0.00718096
-0.00642507 0.0119053 -0.00434637
-0.0100155 0.013795 -0.00226767
-0.00226767 0.0134171 -0.00377945
-0.0105825 0.0153068 0.0166296
-0.0111494 0.0153068 0.034582
-0.0120942 0.0119053 -0.0181414
-0.0334482 0.0285349 -0.0410071
-0.0211649 0.0217318 -0.0355268
0.0147399 -0.0020787 -0.0062361
0.0315584 -0.0154958 0.0119053
0.0171965 -0.0075589 0.00529123
0.0298577 -0.00982658 0.000944863
-0.00944863 -0.000944863 -0.00491329
-0.0145509 -0.00982658 0.00245664
-0.013984 -0.0255113 0.0154958
-0.00850377 -0.0319364 0.0211649
-0.00377945 -0.0194642 0.0122832
-0.00434637 -0.00396842 -0.000566918
-0.00774788 -0.0519675 0.0377945
0.0788016 -0.0428968 0.0440306
0.00113384 0.00982658 -0.00359048
-0.0020787 0.00566918 -0.00472431
-0.000566918 0.0041574 -0.00434637
0.00226767 0.00812582 -0.00340151
0.00245664 0.0115273 -0.00321253
-0.00188973 -0.00132281 -0.00510226
0.000188973 -0.0020787 -0.00472431
0.00340151 0.00245664 -0.00340151
0.00453534 0.0075589 -0.00283459
0.00245664 0.0147399 -0.00340151
-0.00151178 0.00151178 -0.00472431
0.00396842 0.00907068 -0.00302356
-0.0158737 0.0062361 -0.0306136
0.00113384 0.00264562 -0.0041574
-0.0591484 0.0462983 -0.0616051
-0.0370386 0.0336371 -0.0519675
0.0559359 -0.0323143 0.0313695
0.0302356 -0.0175745 0.0188973
-0.0187083 -0.00566918 -0.00151178
-0.0177634 -0.0334482 0.0215429
0.000188973 -0.0226767 0.0158737
-0.00075589 0.00453534 -0.00699199
0.00359048 -0.0869274 0.0440306
-0.0238105 -0.0404401 0.0682191
-0.00283459 -0.0436527 0.0162516
0.0878723 -0.0468652 0.0478101
0.0580146 -0.0629279 0.0873053
0.1251 -0.0425188 0.0272121
-0.00453534 -0.00529123 -0.0062361
-0.00075589 -0.0062361 -0.00548021
0.00491329 0.0020787 -0.00302356
0.00699199 0.0109604 -0.0020787
0.000566918 0.0160627 -0.00377945
Vibration 4
-0.00075589 -0.00396842 0.0062361
-0.000944863 -0.00321253 -0.00113384
-0.00245664 -0.00226767 0.000944863
-0.00359048 -0.00283459 0.00377945
-0.00377945 -0.00377945 0.000944863
-0.00226767 -0.00491329 0.0124722
-0.00566918 -0.00340151 -0.0132281
-0.00321253 -0.00907068 0.0323143
-0.0041574 -0.013984 0.0515895
-0.0020787 -0.00359048 0.00510226
-0.0309915 0.013795 -0.020787
-0.0377945 0.0175745 -0.0268341
-0.013606 0.00359048 -0.00642507
0.0177634 -0.0145509 0.020598
0.0228657 -0.0171965 0.0260782
-0.0249444 0.00982658 -0.0168186
-0.00264562 0.00245664 -0.00321253
-0.00075589 0.00510226 -0.00566918
-0.000944863 0.0179524 -0.013606
-0.00321253 0.0281569 -0.0188973
-0.00491329 0.0222988 -0.0151178
-0.00453534 0.00944863 -0.00736993
-0.00377945 0.0453534 -0.0298577
-0.00302356 -0.00226767 0.00340151
-0.0075589 -0.0020787 -0.0154958
-0.00434637 -0.00245664 0.0062361
0.0119053 -0.00510226 0.013795
0.0166296 -0.0181414 -0.00566918
0.00774788 -0.0202201 -0.0226767
0.0217318 0.00736993 0.0381725
0.0357158 0.00340151 0.0417629
0.0394953 -0.0122832 0.020787
0.0300466 -0.0228657 -0.00283459
0.013795 -0.0325033 -0.0351489
-0.0190862 0.000377945 0.0170075
-0.0156847 0.00850377 -0.0249444
-0.000377945 -0.00302356 -0.00812582
-0.0258892 0.00434637 0.00793685
-0.0493218 0.0247554 -0.0357158
-0.0614161 0.0311805 -0.0472432
0.0376055 -0.0260782 0.0372276
0.0461093 -0.0302356 0.0457314
0.00075589 -0.00132281 -0.0020787
0.000377945 0.020787 -0.0156847
-0.0062361 0.0285349 -0.0185193
-0.00585815 0.00585815 -0.00491329
-0.0111494 0.0835259 -0.0349599
0.00831479 0.0308025 -0.062361
-0.00812582 0.034204 -0.00302356
-0.020787 0.00793685 -0.0117163
-0.000188973 0.00661404 0.0423299
0.0247554 -0.0285349 -0.00793685
0.0185193 0.0200311 0.0546131
0.0434637 0.0128501 0.0610381
0.0500777 -0.0158737 0.0232436
0.0332592 -0.0340151 -0.0185193
0.00529123 -0.0200311 -0.0328812
Vibration 5
-0.0117163 0.0120942 0.0162516
-0.0115273 0.0107714 0.0217318
-0.00944863 0.00925966 0.0170075
-0.00718096 0.0102045 0.0156847
-0.00718096 0.0122832 0.0111494
-0.0096376 0.0132281 0.0126612
-0.00548021 0.013795 0.00170075
-0.00925966 0.0171965 0.00736993
-0.00888171 0.020787 0.00340151
-0.00736993 0.00982658 0.00774788
0.0266451 0.00491329 0.0226767
0.0419519 -0.00302356 0.0168186
0.0213539 -0.0062361 -0.00453534
-0.0164406 0 -0.0226767
-0.0300466 0.00774788 -0.0160627
0.0430858 -0.0160627 -0.00566918
-0.0100155 0.00321253 0.00472431
0.00491329 0.00831479 -0.00831479
0.0041574 -0.00226767 -0.0241885
-0.0120942 -0.0175745 -0.0264562
-0.02759 -0.0215429 -0.013984
-0.0262672 -0.0109604 0.00170075
-0.0132281 -0.0321253 -0.0444086
0.0279679 -0.0236216 -0.0262672
-0.00434637 0.0124722 -0.00264562
-0.00472431 0.00925966 0.0113384
0.00340151 0.000188973 0.0120942
0.00699199 -0.00793685 -0.00075589
0.00359048 -0.00226767 -0.00812582
0.00661404 -0.000944863 0.0228657
0.0132281 -0.0113384 0.020409
0.0166296 -0.020409 0.00718096
0.013606 -0.0185193 -0.00340151
0.00604712 -0.00736993 -0.0132281
-0.0107714 0.0134171 0.0153068
-0.00699199 0.0211649 -0.0105825
-0.0124722 0.0102045 0.0270231
-0.0130391 0.0171965 0.0096376
0.0423299 0.00699199 0.0391173
0.0697309 -0.00718096 0.0291018
-0.034393 -0.00132281 -0.0408181
-0.0583925 0.0113384 -0.0283459
0.0177634 0.020598 -0.00642507
0.0158737 0.00113384 -0.0338261
-0.0400622 -0.0326923 -0.0160627
-0.0383614 -0.013984 0.0117163
-0.0272121 0.00491329 -0.0517785
-0.0179524 -0.0597153 -0.0846597
0.00453534 -0.0563138 -0.013606
0.0548021 -0.0332592 -0.0200311
0.0175745 -0.0402512 -0.0555579
0.00377945 -0.00359048 -0.0164406
0.00396842 0.00604712 0.0328812
0.0156847 -0.0126612 0.0287238
0.0215429 -0.0291018 0.00491329
0.0164406 -0.0251334 -0.013795
0.000188973 0.00472431 -0.00907068
Vibration 6
0.00377945 -0.000188973 -0.0020787
0.00359048 0.00075589 0.000566918
0.00264562 0.00151178 0.00113384
0.00151178 0.00075589 -0.000377945
0.00132281 -0.000377945 -0.00132281
0.00264562 -0.000944863 -0.00434637
0.000188973 -0.00113384 0.00075589
0.00264562 -0.00321253 -0.0103935
0.00283459 -0.00566918 -0.0164406
0.00340151 0 -0.00132281
-0.00585815 0.00321253 -0.00736993
-0.00850377 0.00453534 -0.00661404
-0.000944863 0.00283459 0.000566918
0.00907068 -0.000566918 0.00699199
0.0109604 -0.00170075 0.00566918
-0.00510226 0.00453534 0.000188973
0.00283459 0.0020787 0.00434637
0.00075589 0.00226767 0.00491329
0.00188973 0.000188973 0.00869274
0.00340151 -0.000944863 0.0111494
0.00434637 -0.00151178 0.00925966
0.00510226 0 0.00566918
0.00283459 -0.0188973 0.00434637
0.00264562 0.00302356 0.00850377
-0.000566918 0 0.00113384
0 0.00151178 -0.00151178
-0.00340151 0.00151178 -0.00321253
-0.00510226 0.0020787 -0.00075589
-0.00359048 0.0020787 0.0020787
-0.00491329 0.000188973 -0.00736993
-0.00812582 -0.000188973 -0.00869274
-0.0096376 0.000566918 -0.00604712
-0.00812582 0.00170075 -0.0020787
-0.00453534 0.00283459 0.0041574
0.0020787 0.00283459 -0.00340151
-0.000566918 -0.00132281 0.00226767
0.0041574 0.00113384 0.00170075
0.00245664 0.00226767 -0.00245664
-0.0115273 0.00472431 -0.0124722
-0.0164406 0.00718096 -0.0113384
0.0153068 -0.00226767 0.0126612
0.0183303 -0.00359048 0.00982658
-0.000377945 0.0041574 0.00359048
-0.00151178 0 0.0111494
0.00793685 -0.00321253 0.0119053
0.00604712 -0.000188973 0.00510226
-0.0109604 0.43407 -0.0291018
-0.0349599 -0.28686 -0.392685
0.0531013 -0.245475 0.408748
-0.00340151 0.00548021 0.0062361
0.00359048 0.00566918 0.0200311
0.0124722 -0.00321253 0.00472431
-0.00359048 -0.000377945 -0.00925966
-0.00925966 -0.000944863 -0.0119053
-0.0120942 0.000377945 -0.00718096
-0.00944863 0.00226767 -0.000188973
-0.00264562 0.00075589 0.0041574
Vibration 7
-0.0126612 0.00434637 -0.00642507
-0.0124722 -0.00472431 0.00566918
-0.00548021 -0.00925966 0.0119053
0.00113384 -0.00529123 0.0134171
0.00151178 0.00359048 0.00774788
-0.00566918 0.00812582 -0.00907068
0.00944863 0.00604712 0.0164406
-0.00434637 0.0170075 -0.0340151
-0.00302356 0.0251334 -0.0580146
-0.0185193 0.0075589 -0.0141729
-0.0213539 0.0103935 -0.0177634
-0.0156847 0.00718096 -0.0141729
-0.00604712 0.000944863 -0.00604712
-0.00944863 0.00188973 -0.00812582
-0.0164406 0.00566918 -0.0126612
0.00642507 -0.00585815 0.00264562
-0.00566918 -0.0103935 0.0128501
-0.00566918 -0.00585815 0.0111494
-0.00585815 0.0188973 0.00075589
-0.0062361 0.0376055 -0.00699199
-0.00566918 0.0213539 -0.000188973
-0.00529123 -0.00264562 0.0096376
-0.00680301 0.0782347 -0.0239995
0.0389284 -0.0266451 0.0315584
0.0164406 -0.000944863 0.0160627
0.00944863 -0.00850377 0.0113384
0.0062361 -0.0164406 0.00642507
0.00736993 -0.0143619 0.00774788
0.0126612 0.00075589 0.0164406
0.00132281 -0.0291018 -0.00226767
-0.00453534 -0.0449755 -0.0122832
-0.00491329 -0.0457314 -0.0126612
0.00170075 -0.0291018 -0.00170075
0.00907068 0.0134171 0.0230547
0.0149288 -0.0120942 0.00736993
0.0234326 -0.00245664 0.0170075
-0.0185193 -0.00812582 0.00774788
0.020976 -0.0102045 0.00944863
-0.0268341 0.0143619 -0.0219208
-0.0170075 0.00869274 -0.0158737
-0.00661404 -0.000566918 -0.00585815
-0.0187083 0.00642507 -0.0141729
-0.00548021 -0.0188973 0.0164406
-0.00604712 0.0258892 -0.0020787
-0.00529123 0.0296687 -0.00359048
-0.00510226 -0.0124722 0.013795
-0.0171965 0.0958091 -0.0287238
0.0230547 0.0857936 -0.0351489
-0.0262672 0.0873053 -0.0226767
0.0548021 -0.0355268 0.0442196
0.0196532 -0.048188 0.0493218
0.0659514 -0.0117163 0.0222988
0.00245664 -0.02759 -0.00188973
-0.00907068 -0.0568808 -0.0200311
-0.0102045 -0.0589595 -0.0211649
0.00188973 -0.0281569 -0.00113384
0.00812582 0.0175745 0.0253223
Vibration 8
-0.013606 -0.000944863 -0.0111494
-0.0124722 -0.0062361 -0.0272121
-0.0075589 -0.0100155 -0.0230547
-0.00226767 -0.00680301 -0.0187083
-0.00113384 -0.000188973 -0.00529123
-0.0075589 0.00264562 0.00699199
0.00585815 0.00245664 -0.00264562
-0.00831479 0.0143619 0.0472432
-0.00944863 0.0266451 0.0865495
-0.013984 -0.000566918 -0.00850377
0.013606 -0.0166296 0.0149288
0.0232436 -0.0217318 0.0213539
0.00151178 -0.0111494 0.00283459
-0.0300466 0.00585815 -0.0234326
-0.0364717 0.00944863 -0.0281569
0.0166296 -0.0190862 0.013984
-0.00718096 -0.00888171 -0.0132281
-0.0222988 -0.0308025 0.00680301
-0.0215429 -0.0164406 0.020976
-0.00585815 0.0213539 0.013795
0.00925966 0.0396842 -0.00510226
0.00793685 0.0241885 -0.0187083
-0.00510226 0.0427078 0.0262672
-0.00396842 -0.00982658 -0.00604712
0.0119053 -0.00396842 -0.00510226
0.00604712 -0.0107714 -0.0130391
0.00680301 -0.00585815 -0.0107714
0.00850377 0.000188973 -0.00604712
0.0096376 0.00075589 -0.00377945
0.00718096 -0.00396842 -0.0103935
0.00907068 0.00302356 -0.0062361
0.0103935 0.00831479 -0.00226767
0.0102045 0.00699199 -0.0020787
0.00831479 0.00566918 -0.000944863
0.00925966 -0.0228657 -0.013606
0.020409 -0.00642507 -0.00340151
-0.0156847 -0.00812582 -0.0374166
0.0168186 -0.0211649 -0.0107714
0.0291018 -0.0253223 0.0279679
0.0470542 -0.034204 0.0406291
-0.048377 0.0156847 -0.0391173
-0.0587705 0.0196532 -0.0447865
-0.0353379 -0.0570697 0.0105825
-0.0332592 -0.0328812 0.0362827
0.0219208 0.0668963 -0.00982658
0.0196532 0.0393063 -0.0338261
0.00396842 0.105825 0.0255113
-0.000188973 0.0162516 -0.0196532
-0.0183303 0.0221098 0.0810692
0.0173855 -0.0213539 0.0102045
-0.00944863 -0.0217318 -0.0457314
-0.0319364 0.0190862 0.00529123
0.0062361 -0.00736993 -0.0126612
0.00944863 0.00472431 -0.00604712
0.0117163 0.013795 0.00075589
0.0115273 0.0115273 0.00151178
0.00774788 0.0075589 -0.000377945
Vibration 9
0.00718096 0.00453534 -0.0162516
0.00718096 0.00736993 -0.0255113
0.00377945 0.00944863 -0.013606
0.00113384 0.0075589 0.0103935
0.00170075 0.00396842 0.0126612
0.00453534 0.00321253 -0.00340151
-0.00151178 0.00226767 0.0253223
0.00491329 0.00170075 -0.0130391
0.00529123 0.00170075 -0.0249444
0.0075589 0.00491329 -0.013984
0.00604712 -0.0020787 -0.00736993
0.00359048 -0.00132281 0.00113384
0.00264562 0.00736993 0.00245664
0.0041574 0.0147399 -0.00377945
0.00661404 0.0128501 -0.0119053
-0.000188973 0.00774788 0.0119053
0.00377945 0.0143619 -0.0175745
0.000377945 -0.0291018 0.00302356
0.000566918 -0.0438416 0.0134171
0.00377945 -0.00793685 0
0.00642507 0.0504557 -0.02759
0.00585815 0.0602823 -0.0360938
0.00453534 -0.0321253 0.0171965
-0.00302356 0.0188973 0.0132281
-0.00377945 0.00529123 0.0113384
-0.000566918 0.00850377 0.0183303
0 0.00472431 0.0177634
-0.0120942 -0.0255113 -0.00188973
-0.0103935 -0.0213539 0.00075589
0.00661404 0.0217318 0.0298577
-0.00170075 -0.00113384 0.0154958
-0.0170075 -0.041574 -0.0103935
-0.0213539 -0.0519675 -0.0183303
-0.0117163 -0.034771 0.00566918
-0.00396842 0.00321253 0.0211649
-0.00453534 0.0194642 -0.00264562
0.00982658 0.00869274 -0.0417629
-0.00283459 0.00359048 0.0202201
0.00642507 -0.00869274 -0.00888171
0.00245664 -0.00699199 0.00642507
0.00340151 0.0215429 -0.00264562
0.00850377 0.0183303 -0.0164406
-0.00321253 -0.0519675 0.0103935
-0.00113384 -0.0839038 0.0317474
0.00850377 0.0857936 -0.041574
0.00774788 0.101856 -0.0555579
0.0168186 -0.0491329 0.0226767
-0.0149288 -0.0321253 0.0321253
0.0120942 -0.0334482 0.0128501
-0.00566918 0.0168186 0.0213539
-0.000566918 0.020976 0.00566918
-0.00491329 0.0266451 0.0141729
0.0162516 0.0510226 0.0489439
0.00302356 0.0117163 0.0236216
-0.0247554 -0.0634948 -0.0241885
-0.0319364 -0.0801244 -0.0370386
-0.0113384 -0.00869274 0.0228657
Vibration 10
-0.0075589 0.00283459 0.0393063
-0.0075589 -0.000377945 0.0510226
-0.00736993 -0.00151178 0.020787
-0.00566918 -0.00113384 -0.00736993
-0.00566918 0.00377945 -0.00302356
-0.00661404 0.00302356 0.0105825
0.00132281 0.00661404 -0.0109604
-0.00604712 -0.00188973 -0.0124722
-0.00548021 -0.0096376 -0.0360938
-0.00377945 0.000377945 0.0383614
-0.00585815 0.0185193 0.0194642
0.000377945 0.0160627 0.00340151
0.00944863 -0.00529123 0.00680301
0.0162516 -0.0260782 0.0283459
0.00850377 -0.0211649 0.0434637
0.0128501 -0.00434637 -0.0154958
-0.00774788 -0.000377945 0.0117163
-0.00359048 -0.0417629 0.0257003
-0.00396842 -0.0468652 0.020787
-0.0105825 -0.00132281 -0.00170075
-0.0158737 0.048188 -0.0198421
-0.0154958 0.0464873 -0.0124722
-0.0109604 -0.00340151 -0.00699199
-0.00434637 -0.0145509 -0.0396842
0.00812582 0.00132281 -0.0100155
0.00226767 -0.00491329 -0.0151178
0.00132281 -0.0041574 -0.0158737
0.00604712 0.00718096 -0.00869274
0.00699199 0.00869274 -0.00699199
0.000188973 -0.00680301 -0.0181414
0.00359048 0.00226767 -0.0124722
0.00850377 0.0149288 -0.00453534
0.00944863 0.0171965 -0.00245664
0.00604712 0.0171965 -0.00529123
0.0103935 -0.0132281 -0.0194642
0.013606 -0.00283459 -0.00661404
-0.00907068 -0.000944863 0.075589
0.0185193 -0.0128501 -0.0153068
-0.0130391 0.0359048 0.0173855
-0.00302356 0.0308025 -0.0120942
0.0266451 -0.0455424 0.0334482
0.0111494 -0.034771 0.0570697
-0.000566918 -0.0674632 0.0376055
0.00113384 -0.0844708 0.0330702
-0.020787 0.0869274 -0.0389284
-0.020409 0.0820141 -0.0243775
-0.013606 -0.00925966 -0.0075589
-0.00907068 0.000188973 -0.00321253
-0.0102045 -0.000377945 -0.0134171
-0.0122832 -0.00188973 -0.0697309
0.00529123 -0.00170075 -0.0326923
-0.0185193 -0.0461093 -0.0359048
-0.00264562 -0.0147399 -0.0230547
0.00283459 0.000188973 -0.013984
0.0113384 0.0232436 0.00075589
0.0130391 0.0272121 0.00434637
0.00548021 0.0132281 -0.00831479
Vibration 11
-0.00188973 0.00585815 -0.0228657
-0.00245664 0.00793685 -0.0289128
-0.00529123 0.00944863 -0.0141729
-0.00793685 0.00774788 -0.00377945
-0.00925966 0.0062361 -0.0183303
-0.00566918 0.00396842 -0.0171965
-0.00812582 0.00680301 -0.0243775
-0.00680301 -0.00529123 0.00245664
-0.00812582 -0.0170075 0.0234326
0.00774788 0.000566918 -0.0117163
-0.000944863 0.00170075 -0.0154958
0.0111494 -0.00529123 0.000377945
0.0300466 -0.0107714 0.0175745
0.0444086 -0.0143619 0.0257003
0.0332592 -0.00831479 0.0113384
0.0366607 -0.0154958 0.0313695
-0.00548021 0.0075589 -0.00850377
-0.00736993 0.0075589 -0.00718096
-0.00736993 0.0062361 -0.00453534
-0.00529123 0.00302356 -0.0020787
-0.00340151 -0.000188973 -0.0020787
-0.00340151 0.00226767 -0.00548021
-0.00529123 0.00283459 0.000566918
-0.0442196 0.0377945 -0.0404401
-0.0062361 0.0062361 0.00661404
-0.00831479 0.00793685 0.0130391
0.00170075 0.00340151 0.0164406
0.0130391 0.013984 0.0158737
0.0126612 0.0338261 0.0147399
-0.00699199 -0.0294797 0.00774788
-0.00812582 -0.0638727 -0.00944863
0.00151178 -0.0572587 -0.0128501
0.0143619 -0.0141729 0.00226767
0.0147399 0.061794 0.00642507
-0.0183303 0.00075589 0.020976
-0.0221098 -0.0109604 0.0238105
-0.000566918 0.00888171 -0.0398732
-0.0279679 -0.00907068 0.0251334
-0.0185193 0.00831479 -0.0311805
0.00396842 -0.00491329 -0.0020787
0.0651955 -0.0228657 0.0442196
0.0445975 -0.0107714 0.0170075
-0.00888171 0.00812582 -0.00812582
-0.00869274 0.00736993 -0.00396842
-0.00170075 -0.0041574 0.000566918
-0.0020787 0.000377945 -0.00548021
-0.00340151 0.00434637 0.00113384
-0.00642507 0.00170075 0
-0.00566918 0.00188973 0.00283459
-0.0668963 0.0493218 -0.05518
-0.00604712 0.0765339 -0.101667
-0.116596 0.0249444 -0.0145509
-0.0122832 -0.0315584 0.0115273
-0.0173855 -0.096754 -0.020598
-0.00075589 -0.0856046 -0.02759
0.0234326 -0.00585815 0.000944863
0.00907068 0.0285349 -0.0168186
Vibration 12
-0.0141729 0.00529123 -0.0105825
-0.013795 -0.00302356 -0.0149288
-0.00585815 -0.00812582 -0.0075589
0.00113384 -0.00377945 0.00396842
0.00264562 0.00359048 0.0168186
-0.00661404 0.00907068 0.00188973
0.00774788 0.00491329 0.034582
-0.00548021 0.0243775 -0.0109604
-0.00377945 0.0430858 -0.02759
-0.0147399 0.00566918 -0.0119053
-0.027401 0.0130391 -0.0232436
-0.00850377 0.00245664 -0.00718096
0.0211649 -0.013795 0.0181414
0.0287238 -0.0177634 0.0243775
0.0103935 -0.0075589 0.00925966
0.0493218 -0.0296687 0.0427078
-0.0062361 -0.013795 -0.00377945
-0.0111494 0.000377945 -0.00604712
-0.0111494 0.00944863 -0.00283459
-0.00585815 -0.000188973 0.00396842
-0.000377945 -0.0238105 0.0105825
-0.000944863 -0.0294797 0.0062361
-0.00585815 0.0166296 0.00453534
-0.0372276 0.0192752 -0.0376055
0.0113384 0.000188973 0.00434637
0.00774788 -0.00680301 -0.00340151
0.00075589 -0.0062361 -0.00661404
-0.00888171 -0.0179524 -0.00907068
-0.00680301 -0.027401 -0.00491329
0.00774788 0.0183303 0.00151178
0.00812582 0.0402512 0.0124722
-0.00075589 0.0296687 0.0107714
-0.0109604 -0.00264562 -0.0020787
-0.0102045 -0.0478101 0.00585815
0.0160627 -0.00604712 -0.0096376
0.0311805 0.0177634 -0.013606
-0.0200311 -0.00680301 -0.0232436
0.0285349 0.00566918 -0.013606
-0.0514005 0.0264562 -0.0432747
-0.0166296 0.00680301 -0.013606
0.0519675 -0.0311805 0.0436527
0.0177634 -0.0109604 0.0145509
-0.0151178 0.00453534 -0.0096376
-0.0153068 0.0241885 -0.00604712
0.0041574 -0.0359048 0.0183303
0.00340151 -0.0449755 0.0100155
-0.00529123 0.0260782 0.0041574
0.00359048 0.0183303 0
-0.0154958 0.0190862 0.00907068
-0.0393063 0.0213539 -0.0421409
-0.00888171 0.0434637 -0.119242
-0.122643 0.0264562 -0.00604712
0.0120942 0.0224877 0.00113384
0.0154958 0.0659514 0.0221098
0.000188973 0.0470542 0.0196532
-0.0187083 -0.0130391 -0.00434637
-0.0075589 -0.00888171 0.0309915
Vibration 13
-0.00718096 -0.00188973 0.0124722
-0.00566918 -0.00151178 -0.0122832
-0.00302356 -0.00396842 -0.0306136
-0.00113384 -0.0020787 -0.0219208
0.000377945 -0.00132281 -0.0096376
-0.00396842 -0.00075589 0.00170075
0.00132281 -0.00132281 -0.00321253
-0.00264562 0.0249444 -0.00529123
0.000188973 0.068975 -0.0194642
0.00151178 -0.00736993 0.0325033
0.0147399 -0.00774788 0.0359048
0.0151178 -0.00680301 0.0238105
0.00075589 -0.00869274 0.00925966
0.00888171 -0.0217318 0.0241885
0.00529123 -0.0183303 0.0325033
-0.0279679 0.00982658 -0.0370386
-0.00302356 -0.00132281 -0.0349599
-0.0164406 0.0158737 -0.0319364
-0.0162516 0.0253223 -0.0158737
-0.000188973 0.00566918 0.000944863
0.0143619 -0.0105825 -0.00226767
0.0122832 -0.0117163 -0.0213539
0.00132281 -0.0020787 0.0304246
0.00548021 -0.0285349 -0.0143619
0.00340151 -0.00321253 0.00283459
0.000944863 -0.00302356 -0.000944863
0.00642507 0.00888171 0.0075589
-0.000377945 -0.00434637 0.000566918
0.00283459 0.00529123 0.00604712
0.0122832 0.0243775 0.0175745
0.00699199 0.0134171 0.0102045
-0.00604712 -0.0183303 -0.00907068
-0.00850377 -0.0249444 -0.0128501
-0.00075589 0.0226767 0.0126612
-0.00907068 -0.0175745 0.00812582
0.00264562 -0.0115273 0.0109604
-0.0062361 -0.0020787 -0.0141729
-0.0117163 -0.020787 0.0102045
0.0228657 -0.00585815 0.0444086
0.0217318 -0.00321253 0.0221098
0.0130391 -0.0319364 0.0255113
0.00226767 -0.0234326 0.0362827
-0.0279679 0.0181414 -0.0387394
-0.0283459 0.0430858 -0.0149288
0.0268341 -0.0232436 0.0102045
0.0243775 -0.0226767 -0.0249444
0.0215429 0.000566918 0.0376055
-0.0158737 -0.00774788 0.034771
-0.00151178 -0.00774788 0.0442196
-0.0428968 0.00774788 -0.0799354
0.020598 0.00302356 0.0842818
0.0582036 -0.119998 -0.0376055
0.0181414 0.041385 0.0283459
0.0115273 0.0266451 0.0173855
-0.0134171 -0.0357158 -0.020409
-0.0164406 -0.0445975 -0.0253223
0.000188973 0.0134171 0.0100155
Vibration 14
0.0103935 -0.0130391 -0.00982658
0.0119053 -0.00548021 0.0120942
0.0119053 -0.00434637 0.0251334
0.0103935 -0.00453534 0.013606
0.0126612 -0.0160627 -0.0102045
0.0111494 -0.0151178 -0.0124722
-0.00831479 -0.0230547 -0.0270231
0.013606 0.0476211 -0.00170075
0.0185193 0.160249 0.0156847
0.0132281 -0.0145509 -0.0149288
0.00396842 -0.0171965 -0.0151178
-0.0020787 -0.0149288 -0.00944863
0.00396842 -0.0103935 -0.00245664
0.0179524 -0.00925966 0.00113384
0.0198421 -0.0105825 -0.00736993
-0.00982658 -0.00491329 0.0020787
0.0128501 -0.00642507 0.0294797
0.0247554 -0.0253223 0.0285349
0.0249444 -0.034582 0.0160627
0.0128501 -0.00812582 -0.00170075
0.000188973 0.0124722 -0.00188973
0.00170075 0.00982658 0.0154958
0.0115273 0.00472431 -0.0287238
-0.00812582 0.00869274 0.0100155
-0.0289128 -0.00774788 -0.00718096
-0.00907068 0.00529123 0.00661404
-0.0122832 0.00151178 0.00359048
-0.00510226 0.0141729 0.00982658
-0.0134171 -0.00170075 -0.00548021
-0.0215429 -0.0221098 -0.0124722
-0.0217318 -0.0236216 -0.0134171
-0.00850377 0.00812582 0.00604712
-0.00113384 0.0268341 0.0177634
-0.00245664 -0.0255113 -0.0292908
-0.0173855 0.0245664 0.0096376
-0.054991 -0.0147399 0
0.013795 -0.00434637 0.0175745
-0.0372276 0.0128501 0.00831479
0.000566918 -0.0215429 -0.0194642
-0.0109604 -0.0158737 -0.0109604
0.0266451 -0.00718096 0.0103935
0.0270231 -0.0075589 -0.00793685
0.0340151 -0.0272121 0.0336371
0.034582 -0.0557469 0.0183303
-0.0105825 0.0311805 -0.0158737
-0.0075589 0.0228657 0.0162516
-0.00680301 0.00472431 -0.0353379
0.0309915 0.0113384 -0.0332592
0.0103935 0.0115273 -0.0406291
-0.034771 0.0188973 0.00226767
0.00566918 0.0281569 0.0279679
0.00377945 -0.0107714 0.00491329
-0.0266451 -0.0385504 -0.0236216
-0.0304246 -0.0478101 -0.027779
-0.00529123 0.0151178 0.0107714
0.00642507 0.0468652 0.0311805
-0.00491329 -0.0442196 -0.0432747
Vibration 15
0.00340151 -0.00377945 -0.000566918
0.00340151 -0.00321253 0.0279679
0.00491329 -0.00321253 0.0200311
0.00604712 -0.00264562 -0.0202201
0.00434637 -0.00396842 -0.0283459
0.0041574 -0.00396842 -0.0194642
0.00302356 -0.00566918 -0.0302356
0.00377945 -0.000566918 -0.00245664
0.00302356 0.00472431 0.0247554
-0.00170075 -0.00132281 -0.00566918
-0.0100155 0.00188973 -0.0109604
-0.0120942 0.00264562 -0.0103935
-0.00453534 -0.000188973 -0.00359048
-0.00604712 0.00264562 -0.00661404
-0.00321253 0.000944863 -0.00642507
0.00925966 -0.00850377 0.0120942
0.00604712 -0.0103935 0.0300466
0.0160627 -0.0196532 0.0262672
0.0162516 -0.0241885 0.013984
0.00529123 -0.0126612 0.00340151
-0.00529123 -0.0171965 0.0128501
-0.00396842 -0.0156847 0.0264562
0.00396842 0.0128501 -0.02759
-0.00340151 0.00151178 0.00151178
0.00359048 -0.00548021 -0.00888171
0.00359048 -0.000566918 -0.00718096
0.00585815 0.0187083 0.00132281
-0.00982658 -0.0105825 -0.013606
-0.00170075 0.0128501 -0.00132281