[Molden Format]
[FREQ]
-1577.8
8.7
16.4
28.3
31.7
36.0
40.6
43.6
52.2
60.6
68.4
79.8
93.0
108.7
120.6
135.1
142.9
148.4
153.8
180.4
185.2
198.7
219.7
232.8
253.9
259.0
270.5
286.8
290.7
303.8
330.2
336.0
351.5
356.8
357.6
363.6
372.1
407.6
410.1
432.4
456.2
472.0
493.2
507.8
514.5
535.2
545.4
574.7
586.0
602.1
611.6
616.9
624.9
635.1
646.0
660.5
681.6
688.1
704.1
709.2
746.9
763.4
790.6
795.3
828.1
830.4
840.1
851.5
878.7
883.0
884.8
900.2
901.5
938.2
941.5
951.8
997.1
1005.8
1009.4
1011.0
1017.8
1021.6
1030.7
1037.7
1046.0
1056.4
1070.6
1081.7
1095.4
1109.1
1113.4
1126.7
1166.6
1178.5
1179.8
1183.5
1186.3
1189.2
1206.9
1238.9
1252.4
1263.0
1265.0
1268.0
1274.6
1280.3
1286.3
1286.7
1292.8
1300.2
1325.4
1329.1
1332.4
1334.4
1341.3
1349.8
1350.2
1358.7
1362.4
1378.2
1390.8
1421.1
1455.9
1462.4
1511.7
1520.9
1525.4
1528.4
1569.4
1574.1
1585.6
1586.1
1669.2
1695.8
1697.2
1698.8
1706.4
1707.1
1709.6
1796.7
1809.6
1843.1
1889.9
2266.7
2448.2
2651.5
2654.2
2665.3
2671.8
2733.8
2737.6
2741.0
2741.5
2744.9
2745.7
2746.5
2753.1
2760.4
2761.8
2762.6
2764.0
2765.5
2766.3
2769.8
2778.8
       
[FR-COORD]
C -2.01879 -2.93531 -0.885715
C 0.671798 -2.93531 -0.885715
C 1.98629 -0.703356 -0.885715
N 0.748709 1.59512 -0.861904
C -1.95568 1.73911 -0.916706
C -3.29814 -0.68049 -0.915572
N -3.19855 3.82821 -0.949398
C -5.967 -0.543485 -1.02045
N -8.1485 -0.399488 -1.13327
C -3.32762 -5.37457 -0.862471
C -2.7333 -7.19438 -2.69588
C -3.95652 -9.50683 -2.70665
C -5.78521 -9.99684 -0.841306
C -6.3886 -8.21558 1.00685
C -5.14875 -5.89557 0.974343
O -6.82456 -12.3295 -1.06221
C 4.7708 -0.69523 -0.826377
C 6.00423 -1.6416 1.30693
C 8.63076 -1.65086 1.40218
C 10.035 -0.742284 -0.642507
C 8.7893 0.164595 -2.78999
C 6.16372 0.187839 -2.88599
C 12.8481 -0.730946 -0.556713
C -8.78458 -12.9747 0.658381
C -2.38729 6.28995 -1.20848
C -1.52463 7.8692 0.891762
C 0.527423 6.87577 2.56493
C 2.30093 5.0964 1.78541
C 2.21722 3.9535 -0.76515
C 0.67142 7.85729 5.01061
C 2.57097 7.05926 6.64881
C 4.35998 5.30163 5.84133
C 4.23318 4.32124 3.40264
O 3.25279 4.66536 -2.63636
O -2.27844 10.0042 1.2202
O -4.47034 7.6823 -2.58118
H 1.67297 -4.73036 -0.871164
H -2.58496 7.18077 -3.82027
H -1.31279 -6.77278 -4.13151
H -3.53965 -10.9374 -4.12036
H -7.80079 -8.59636 2.44285
H -5.60908 -4.4743 2.40014
H 4.90686 -2.36896 2.89449
H 9.59074 -2.37557 3.06948
H 9.87798 0.863605 -4.38946
H 5.19297 0.909336 -4.56104
H 13.6051 1.19393 -0.785559
H 13.658 -1.8867 -2.08531
H 13.61 -1.47115 1.22605
H -9.30577 -14.8839 0.0292908
H -10.3924 -11.6864 0.46544
H -8.07499 -13.0219 2.59989
H -0.711293 9.27081 5.61702
H 2.6647 7.82082 8.55951
H 5.85891 4.69313 7.11312
H 5.64159 2.95648 2.76561
H -5.93676 6.51407 -2.85197

[FR-NORM-COORD]
Vibration 1
-0.000566918 -0.000377945 0
0.000566918 0.000944863 0
0.00188973 -0.00283459 -0.000377945
-0.00075589 0.000944863 -0.00170075
0.00170075 0.000188973 0.0041574
0.000944863 0.000377945 0.000944863
-0.00170075 -0.0117163 0.0041574
-0.00075589 0.000566918 -0.000188973
0.000188973 -0.000566918 0.000377945
0.000188973 0.000188973 0
0 -0.000188973 0
0.000188973 0.000188973 0
-0.000188973 -0.000377945 0
0.000188973 0.000188973 0.000188973
-0.000188973 0 0
0.000188973 0.000188973 0
0 0 0.000188973
0.000188973 0 0
-0.000188973 0 0
0.000188973 0 0
-0.000188973 0 0
0 0.000188973 0
-0.000188973 0 0
0 0 0
-0.0315584 0.0449755 -0.11962
0.0075589 0.0132281 0.00264562
-0.00321253 -0.00170075 0.000944863
-0.000944863 0.000566918 -0.000566918
0.00396842 -0.00510226 0.0020787
-0.000188973 0 -0.000188973
0.000377945 0 0.000188973
-0.000188973 0.000188973 0.000188973
-0.000377945 0.000377945 -0.00075589
-0.00151178 0.000944863 0
0.00113384 -0.00566918 0.00170075
-0.0565028 0.00283459 0.0359048
0.000377945 -0.000944863 -0.000188973
1.23059 -0.51136 0.547076
-0.000566918 -0.000377945 -0.00075589
-0.000188973 0 -0.000566918
-0.000377945 0 0
-0.00075589 0.000188973 -0.000188973
0.000377945 -0.00075589 -0.000188973
0.000188973 -0.000566918 0.000188973
0.000188973 -0.000188973 -0.00075589
0.00075589 -0.00151178 -0.00132281
0.000377945 0 -0.000377945
0.000188973 -0.000188973 -0.000377945
0.000377945 -0.000188973 0
0 -0.000188973 -0.000188973
-0.000188973 0 -0.000188973
-0.000188973 -0.000188973 0
-0.00075589 -0.00132281 0.00434637
0.000377945 -0.000188973 0.000944863
0.000566918 -0.000566918 0.000566918
0.000377945 -0.000566918 0.000188973
-0.0525344 0.0848487 0.132281
Vibration 2
-0.000566918 0.00907068 -0.0232436
-0.000566918 0.00661404 -0.0226767
0.00151178 0.00548021 -0.0185193
0.00321253 0.0062361 -0.0156847
0.00340151 0.00869274 -0.0228657
0.00132281 0.0100155 -0.0292908
0.00548021 0.0100155 -0.020976
0.00170075 0.0120942 -0.0349599
0.00302356 0.0226767 -0.0459203
-0.00113384 0.00944863 -0.0105825
-0.00151178 -0.00245664 0.00113384
0.00377945 -0.00529123 0.020976
0.00925966 0.00396842 0.0289128
0.0075589 0.0171965 0.0154958
0.0020787 0.0198421 -0.00434637
0.0164406 -0.00132281 0.0504557
0.00132281 0.00264562 -0.0171965
0.000188973 -0.0096376 -0.0217318
0 -0.013606 -0.0217318
0.00132281 -0.00529123 -0.0171965
0.00264562 0.00736993 -0.0126612
0.00264562 0.0115273 -0.0124722
0.00151178 -0.0102045 -0.0173855
0.0262672 0.0041574 0.0636838
0.0103935 0.0100155 -0.00718096
0.000188973 -0.000944863 0.00548021
-0.013606 -0.0141729 0.0145509
-0.0113384 -0.0124722 0.0162516
0.00472431 0.00434637 0.00812582
-0.0302356 -0.0304246 0.0219208
-0.0444086 -0.0453534 0.0311805
-0.0419519 -0.0438416 0.0332592
-0.0251334 -0.027401 0.0257003
0.0171965 0.0154958 0.0192752
0.00302356 -0.00075589 0.0102045
0.020598 0.0187083 -0.0134171
-0.00188973 0.00585815 -0.0247554
0.0264562 0.0211649 -0.00491329
-0.00548021 -0.0100155 -0.00491329
0.00396842 -0.0149288 0.0308025
0.0103935 0.0251334 0.020598
0.00113384 0.0296687 -0.0147399
-0.000944863 -0.0162516 -0.0257003
-0.000944863 -0.0230547 -0.0253223
0.00377945 0.013984 -0.00907068
0.00377945 0.0217318 -0.00869274
0.00472431 -0.0107714 -0.0113384
-0.000566918 -0.00680301 -0.020976
0.000377945 -0.0170075 -0.0196532
0.0334482 -0.00396842 0.0823921
0.0192752 -0.00548021 0.0582036
0.0336371 0.0249444 0.0614161
-0.0319364 -0.0315584 0.020787
-0.0572587 -0.0580146 0.0368497
-0.0531013 -0.055369 0.0408181
-0.0232436 -0.0260782 0.027401
0.0202201 0.0219208 -0.0264562
Vibration 3
-0.0096376 0.00434637 -0.0188973
-0.0096376 0.00396842 -0.00812582
-0.00907068 0.00359048 -0.00585815
-0.00869274 0.00377945 -0.0124722
-0.00831479 0.0041574 -0.0164406
-0.00907068 0.00453534 -0.02759
-0.00774788 0.00472431 -0.00453534
-0.00850377 0.00585815 -0.0387394
-0.00718096 0.0153068 -0.0534792
-0.00812582 0.00340151 -0.0141729
0.00340151 -0.00661404 -0.000566918
0.0117163 -0.0109604 0.0113384
0.00812582 -0.00529123 0.00944863
-0.00585815 0.0062361 -0.00604712
-0.013984 0.0103935 -0.0179524
0.0200311 -0.0119053 0.0243775
-0.00944863 0.00188973 0.00566918
-0.0200311 -0.00377945 0.00944863
-0.020598 -0.00548021 0.0222988
-0.0102045 -0.00132281 0.0311805
0.000566918 0.0041574 0.0272121
0.000944863 0.00529123 0.0143619
-0.0107714 -0.00226767 0.0453534
0.0215429 -0.0102045 0.0268341
-0.00680301 0.0062361 0.013606
-0.00925966 -0.0109604 0.0279679
0.0109604 -0.0102045 0.00396842
0.0120942 0.000944863 -0.0192752
-0.00888171 0.00472431 -0.020409
0.0311805 -0.0173855 0.00566918
0.0527234 -0.0115273 -0.0162516
0.0546131 0.00170075 -0.0406291
0.034204 0.00831479 -0.0421409
-0.0251334 0.00812582 -0.0281569
-0.0268341 -0.0217318 0.0576366
-0.0062361 0.0171965 0.0238105
-0.0100155 0.00377945 -0.00170075
-0.00642507 0.0245664 0.0200311
0.00642507 -0.0113384 0.00113384
0.0213539 -0.0190862 0.0224877
-0.0100155 0.0115273 -0.00888171
-0.0243775 0.0187083 -0.0296687
-0.0283459 -0.0062361 0.00283459
-0.0291018 -0.00982658 0.0251334
0.00869274 0.00680301 0.0338261
0.0096376 0.00850377 0.0105825
-0.00944863 -0.000944863 0.0604712
-0.00302356 0.00680301 0.0425188
-0.0196532 -0.0128501 0.0447865
0.0351489 -0.0188973 0.0421409
0.013606 -0.0222988 0.0132281
0.0187083 0.0109604 0.0283459
0.0296687 -0.0266451 0.0245664
0.0680301 -0.0168186 -0.0149288
0.0719986 0.00699199 -0.0585815
0.0359048 0.0188973 -0.0610381
-0.00736993 0.020598 0.0164406
Vibration 4
0.0119053 -0.0117163 0.00132281
0.0120942 -0.00888171 0.00132281
0.00944863 -0.00736993 -0.00302356
0.00661404 -0.00869274 -0.00566918
0.00680301 -0.0117163 -0.00812582
0.0096376 -0.0128501 -0.00661404
0.00491329 -0.0126612 -0.00925966
0.0096376 -0.0149288 -0.0103935
0.0096376 -0.0173855 -0.0130391
0.00888171 -0.0100155 0.0096376
0.00925966 -0.0211649 0.0211649
-0.0062361 -0.0132281 0.0221098
-0.0228657 0.00661404 0.0109604
-0.0187083 0.0154958 0.00377945
-0.00226767 0.00642507 0.00340151
-0.0430858 0.0158737 0.00888171
0.00944863 0.00151178 -0.00548021
0.0160627 0.00944863 -0.00585815
0.0160627 0.0325033 -0.00359048
0.00982658 0.0472432 -0.00132281
0.00377945 0.0338261 -0.00359048
0.00377945 0.0107714 -0.00566918
0.0096376 0.0763449 0.00264562
-0.0721875 0.0444086 -0.0132281
0.00831479 -0.0124722 -0.00245664
-0.0062361 -0.0196532 0.00925966
-0.00188973 -0.0181414 0.00510226
0.00321253 -0.0102045 -0.00151178
0.00245664 -0.00566918 -0.00359048
-0.00283459 -0.0245664 0.00774788
0.00188973 -0.0222988 0.00340151
0.00793685 -0.0126612 -0.00377945
0.00869274 -0.00642507 -0.00642507
-0.00170075 -0.000377945 -0.00396842
-0.020598 -0.0268341 0.0224877
0.0192752 -0.00888171 -0.013984
0.013984 -0.00774788 0.00453534
0.0258892 -0.00944863 -0.00302356
0.020787 -0.0360938 0.0281569
-0.00699199 -0.0211649 0.0298577
-0.0285349 0.0292908 -0.0020787
0.000566918 0.0134171 -0.00226767
0.020976 -0.00075589 -0.00699199
0.020976 0.0398732 -0.00340151
-0.000944863 0.0425188 -0.00302356
-0.00113384 0.00132281 -0.00680301
-0.00680301 0.0767229 -0.0472432
0.0215429 0.0428968 0.0340151
0.013984 0.130202 0.0232436
-0.089951 0.0502667 -0.0162516
-0.0531013 0.0653845 -0.034204
-0.0954312 0.0381725 -0.00491329
-0.00736993 -0.0313695 0.0132281
0.00113384 -0.02759 0.00566918
0.0120942 -0.0102045 -0.0075589
0.013606 0.00132281 -0.0119053
0.0185193 -0.00548021 -0.0236216
Vibration 5
-0.000566918 0.00264562 0.0126612
-0.000377945 0.00510226 0.0213539
-0.000944863 0.00548021 0.0141729
-0.00151178 0.00491329 0.00831479
-0.00151178 0.00340151 0.00472431
-0.00075589 0.00283459 0.0020787
-0.00245664 0.00283459 0.0041574
-0.000188973 0.00472431 -0.00850377
0.000566918 0.00888171 -0.0187083
0.00359048 0.00075589 0.0111494
0.0555579 -0.0217318 0.0495108
0.0633058 -0.0255113 0.0474321
0.0151178 -0.00680301 0.00510226
-0.0377945 0.0149288 -0.0332592
-0.0421409 0.0173855 -0.0292908
0.027779 -0.0126612 0.0075589
-0.00075589 0.00340151 0.00585815
0.00699199 0.00510226 0.00188973
0.0075589 -0.0075589 -0.013606
0 -0.0217318 -0.0251334
-0.00831479 -0.0190862 -0.0192752
-0.00869274 -0.0062361 -0.00359048
0.000566918 -0.0406291 -0.0442196
-0.0257003 0.00925966 -0.0451645
-0.00377945 0.00321253 0.00491329
-0.00642507 0.00359048 0.00585815
-0.0041574 0.00661404 0.00472431
-0.00283459 0.0075589 0.00510226
-0.00245664 0.00566918 0.00585815
-0.00359048 0.00831479 0.0041574
-0.0020787 0.0111494 0.00359048
-0.00113384 0.0117163 0.00396842
-0.00170075 0.0100155 0.00491329
-0.00245664 0.0041574 0.00529123
-0.0103935 0.00188973 0.00736993
-0.0041574 0.0020787 0.00396842
0.00151178 0.0062361 0.0315584
-0.00302356 0.00340151 0.00510226
0.0908958 -0.0360938 0.0799354
0.105069 -0.0427078 0.0769118
-0.0746442 0.0294797 -0.0653845
-0.0818251 0.0325033 -0.0566918
0.0128501 0.0149288 0.0103935
0.013795 -0.00718096 -0.0171965
-0.0141729 -0.0279679 -0.0272121
-0.0151178 -0.00472431 0.00075589
0.0122832 -0.0462983 -0.0534792
-0.0175745 -0.0493218 -0.0474321
0.00774788 -0.0419519 -0.0478101
-0.00321253 -0.000566918 -0.034393
-0.0213539 0.00434637 -0.114517
-0.0873053 0.0379835 -0.0219208
-0.00453534 0.0075589 0.00377945
-0.00170075 0.0126612 0.00302356
-0.000188973 0.013795 0.00377945
-0.00132281 0.0102045 0.00510226
-0.00321253 0.000944863 0.00321253
Vibration 6
-0.00699199 0.00340151 0.0103935
-0.00699199 0.00226767 0.0145509
-0.0062361 0.00188973 0.0162516
-0.0062361 0.00170075 0.0164406
-0.00585815 0.0020787 0.00075589
-0.00699199 0.00340151 0.0075589
0.000188973 0.00642507 -0.0200311
-0.00718096 0.00151178 0.0102045
-0.00774788 -0.0041574 0.0143619
-0.00604712 0.00283459 0.00491329
-0.0147399 0.0147399 -0.0096376
-0.0113384 0.0132281 -0.0160627
0.00132281 -0.00075589 -0.00718096
0.00925966 -0.0122832 0.00642507
0.00491329 -0.0096376 0.0120942
0.00491329 -0.00170075 -0.0141729
-0.0062361 0.00132281 0.0103935
0.00132281 0.0122832 0.0103935
0.00188973 0.00604712 -0.00264562
-0.00585815 -0.0109604 -0.0154958
-0.013984 -0.0185193 -0.0141729
-0.0143619 -0.0119053 -0.000944863
-0.00529123 -0.0226767 -0.0323143
0.0226767 -0.0190862 -0.000566918
0.0377945 -0.00245664 -0.0143619
-0.0226767 -0.0141729 0.020787
-0.00982658 0.00132281 0.0147399
-0.0041574 0.00831479 0.0102045
-0.00642507 0.00245664 0.0124722
-0.00264562 0.00736993 0.0117163
0.0105825 0.0221098 0.00377945
0.0154958 0.0294797 -0.00075589
0.00774788 0.0221098 0.00245664
-0.00377945 -0.00321253 0.0115273
-0.0765339 -0.0389284 0.0544241
0.106581 0.0156847 -0.0942973
-0.00793685 0.00188973 0.0153068
0.13795 -0.0196532 -0.0285349
-0.0238105 0.0255113 -0.0154958
-0.0183303 0.0222988 -0.027401
0.0183303 -0.0228657 0.0124722
0.0103935 -0.0179524 0.0219208
0.00736993 0.0245664 0.0200311
0.00831479 0.013795 -0.00302356
-0.0200311 -0.0304246 -0.0234326
-0.020976 -0.0175745 0.000566918
0.0041574 -0.0321253 -0.0797464
-0.0211649 -0.0614161 -0.0115273
0.00151178 0.0128501 -0.020409
0.0234326 -0.0168186 -0.00774788
0.0164406 -0.0232436 0.0217318
0.0400622 -0.0287238 -0.00718096
-0.00812582 0.000566918 0.0156847
0.0164406 0.027779 0.00132281
0.0255113 0.0410071 -0.00718096
0.0111494 0.0272121 -0.000944863
0.0933525 0.041385 -0.129068
Vibration 7
0.00793685 -0.00151178 0.00151178
0.00774788 0.00170075 0
0.00529123 0.00340151 -0.00113384
0.00264562 0.00188973 -0.00245664
0.00226767 -0.00170075 -0.00283459
0.00529123 -0.00302356 0
-0.000377945 -0.00321253 -0.00510226
0.00491329 -0.0062361 0.00132281
0.00453534 -0.0102045 0.00340151
0.00850377 -0.00170075 0.00472431
0.00283459 -0.00170075 0.00302356
-0.00302356 0.00132281 0.00226767
-0.00283459 0.00453534 0.00321253
0.00548021 0.00321253 0.00736993
0.0113384 0.000188973 0.00793685
-0.0119053 0.00888171 0.000188973
0.00529123 0.00434637 -0.000566918
0.00396842 -0.00226767 -0.00264562
0.00396842 -0.0105825 -0.0041574
0.00566918 -0.0126612 -0.00396842
0.00699199 -0.00113384 0.000188973
0.00680301 0.00699199 0.00170075
0.00548021 -0.00944863 0
-0.0188973 0.0168186 -0.00453534
-0.00132281 -0.00245664 -0.00283459
-0.0113384 -0.00472431 0.00321253
-0.00680301 -0.000377945 0.000377945
-0.00340151 0.00377945 -0.00170075
-0.00151178 0.00434637 -0.00188973
-0.00680301 -0.00113384 0.00075589
-0.00377945 0.00245664 -0.00113384
-0.00075589 0.00642507 -0.00302356
-0.00075589 0.00680301 -0.00321253
-0.00226767 0.00642507 -0.00151178
-0.0232436 -0.0102045 0.0111494
0.0020787 -0.00359048 -0.00888171
0.00982658 0.00283459 0
0.00585815 -0.00226767 -0.00340151
0.00226767 -0.00396842 0.00188973
-0.00812582 0.00151178 0.000566918
0.00736993 0.00491329 0.00944863
0.0173855 -0.000377945 0.0105825
0.00283459 -0.00188973 -0.00321253
0.00264562 -0.0156847 -0.00566918
0.00812582 0.00151178 0.0020787
0.00812582 0.013984 0.00396842
-0.0251334 0.0563138 0.43955
0.0302356 0.3513 -0.257948
0.0109604 -0.40289 -0.165729
-0.0292908 0.0215429 -0.00982658
-0.0107714 0.0270231 -0.00434637
-0.0222988 0.00831479 -0.00359048
-0.0096376 -0.00453534 0.00264562
-0.00377945 0.0020787 -0.000944863
0.00132281 0.00888171 -0.00434637
0.00075589 0.00907068 -0.00453534
0.00302356 -0.00359048 -0.0126612
Vibration 8
-0.0213539 0.00170075 0.00510226
-0.020787 -0.00604712 0.00170075
-0.0141729 -0.0105825 0.000377945
-0.00774788 -0.00699199 0.00396842
-0.00718096 0.00170075 0.00812582
-0.0147399 0.00585815 0.0115273
0.0020787 0.00793685 0.00661404
-0.0145509 0.013795 0.0171965
-0.0145509 0.0187083 0.0226767
-0.0222988 0.0020787 -0.00151178
0.00188973 -0.00264562 0.0103935
0.0156847 -0.0096376 0.0096376
0.00302356 -0.0126612 -0.00359048
-0.027401 -0.00548021 -0.020409
-0.0394953 0.00132281 -0.0188973
0.0245664 -0.0226767 0.00151178
-0.0141729 -0.0117163 -0.00453534
-0.00944863 -0.00453534 -0.00434637
-0.00944863 0.0181414 -0.00075589
-0.0145509 0.0326923 0.00226767
-0.0190862 0.0160627 -0.0020787
-0.0188973 -0.00661404 -0.00566918
-0.0149288 0.0719986 0.0124722
0.0245664 -0.034582 -0.00321253
0.0224877 0.00113384 -0.00302356
0.027401 0.00585815 -0.00888171
0.0173855 -0.00188973 -0.00132281
0.00812582 -0.0130391 0.00302356
0.00113384 -0.0122832 0.00283459
0.0194642 0.000188973 -0.00245664
0.0124722 -0.00944863 0.00113384
0.00321253 -0.020787 0.00548021
0.00151178 -0.0222988 0.00604712
0.000566918 -0.0149288 0.00151178
0.0432747 0.0132281 -0.0211649
0.0425188 0.0107714 -0.0222988
-0.0257003 -0.00888171 0.000188973
0.0444086 -0.0120942 -0.00944863
0.0119053 -0.00113384 0.020598
0.0368497 -0.013606 0.0198421
-0.0406291 -0.00566918 -0.0334482
-0.061794 0.00510226 -0.0296687
-0.00566918 -0.013795 -0.00585815
-0.00548021 0.0264562 0.000566918
-0.0226767 0.0230547 -0.00151178
-0.0228657 -0.0177634 -0.00831479
-0.0472432 0.0954312 0.0992106
0.0113384 0.15269 -0.034204
-0.0096376 0.0075589 -0.0166296
0.0523454 -0.0461093 0.00888171
0.00925966 -0.0565028 -0.0215429
0.0149288 -0.0105825 0.000944863
0.0270231 0.00907068 -0.0062361
0.0141729 -0.00831479 0.000377945
-0.00226767 -0.0283459 0.00831479
-0.00472431 -0.0302356 0.00925966
0.0334482 0.0221098 -0.0230547
Vibration 9
0.0020787 0.00642507 0.0100155
0.00188973 0.0107714 -0.0062361
-0.000188973 0.0124722 -0.0154958
-0.00377945 0.0100155 -0.0230547
-0.00472431 0.00585815 -0.00245664
-0.00170075 0.00453534 0.0192752
-0.00548021 0.00604712 -0.00302356
-0.00283459 0.000566918 0.0442196
-0.00491329 -0.0113384 0.0701088
0.00812582 0.00340151 0.0141729
0.0171965 0.00321253 0.0168186
0.020409 0.00170075 0.0130391
0.0130391 0.000566918 0.00566918
0.00699199 -0.00113384 0.00529123
0.00510226 0 0.0100155
0.013795 0.000944863 -0.000188973
-0.000377945 0.0103935 -0.0096376
-0.0128501 -0.0379835 -0.0232436
-0.013795 -0.0500777 -0.0105825
-0.000566918 -0.0105825 0.0158737
0.0126612 0.0408181 0.0300466
0.0130391 0.0495108 0.0164406
-0.000944863 -0.02759 0.0285349
-0.0120942 0.0102045 -0.0260782
0.00472431 0.00340151 -0.0102045
-0.00113384 0.00283459 -0.00680301
-0.00302356 -0.00302356 -0.00774788
-0.00321253 0.00075589 -0.0173855
-0.0105825 0.0147399 -0.0230547
-0.00529123 -0.0192752 -0.00151178
-0.00812582 -0.0330702 -0.00472431
-0.00869274 -0.0294797 -0.013984
-0.00604712 -0.0126612 -0.020976
-0.0272121 0.0287238 -0.0268341
-0.0020787 0.00170075 -0.00359048
0.020787 0.00718096 -0.027779
0.00453534 0.0120942 -0.00869274
0.0239995 -0.00604712 -0.0156847
0.020976 0.00472431 0.0211649
0.0272121 0.00170075 0.0149288
0.00359048 -0.00321253 0.00151178
0.000377945 -0.00151178 0.0102045
-0.0230547 -0.0668963 -0.0432747
-0.0245664 -0.0901399 -0.0217318
0.0226767 0.0723765 0.0506447
0.0247554 0.0839038 0.0241885
0.0158737 -0.0385504 -0.00491329
-0.00453534 -0.0634948 0.0534792
-0.0141729 0 0.0457314
-0.0145509 0.013795 -0.034393
-0.00245664 0.0192752 -0.0451645
-0.0368497 0.00453534 -0.0171965
-0.00472431 -0.0222988 0.0062361
-0.0102045 -0.0468652 0.000944863
-0.0115273 -0.0400622 -0.0158737
-0.00736993 -0.0107714 -0.0281569
0.0153068 0.0147399 -0.0302356
Vibration 10
0.00075589 -0.00944863 -0.0188973
0.00075589 -0.00888171 -0.0239995
0.00132281 -0.00888171 -0.00812582
0.000188973 -0.00944863 0.0151178
0.000377945 -0.00907068 0.00718096
0.000566918 -0.00888171 -0.00869274
0.00188973 -0.00793685 0.0143619
0.000944863 -0.00850377 -0.0149288
0.00132281 -0.00661404 -0.0213539
-0.00151178 -0.00831479 -0.0175745
-0.00321253 -0.0164406 -0.0100155
-0.00604712 -0.0153068 -0.000944863
-0.00736993 -0.00604712 0.000188973
-0.00718096 0.00283459 -0.00831479
-0.0041574 0.00075589 -0.0170075
-0.00925966 -0.0062361 0.0109604
0.00132281 -0.00793685 -0.00944863
0.00170075 -0.0566918 -0.0311805
0.00170075 -0.0540462 -0.0291018
0.00188973 0.00188973 -0.00396842
0.0020787 0.0498888 0.0162516
0.0020787 0.0423299 0.0124722
0.00170075 0.00850377 0.000188973
-0.00661404 0.00188973 0.0173855
0.00359048 -0.00869274 0.0105825
-0.0020787 0.00226767 0.00491329
0.00661404 0.020598 0.00491329
-0.00907068 -0.00302356 0.0228657
-0.00566918 -0.0075589 0.0247554
0.0285349 0.0591484 -0.0115273
0.0294797 0.0682191 -0.00831479
0.00283459 0.0304246 0.0147399
-0.0170075 -0.00661404 0.0306136
-0.00377945 0.000188973 0.0283459
-0.0151178 -0.00113384 -0.00132281
0.00831479 -0.013606 -0.0020787
0.00075589 -0.00888171 -0.0396842
0.013606 -0.0187083 0.00718096
-0.00226767 -0.0239995 -0.0113384
-0.00680301 -0.0213539 0.00510226
-0.00907068 0.0109604 -0.00793685
-0.00340151 0.00699199 -0.0226767
0.0020787 -0.096565 -0.0493218
0.00151178 -0.0942973 -0.0464873
0.00188973 0.0927855 0.0349599
0.00321253 0.0750221 0.0257003
-0.000188973 0.00774788 -0.0102045
0.00472431 0.000377945 0.0075589
0.00075589 0.0198421 0.00529123
-0.00604712 -0.00188973 0.0285349
-0.0075589 -0.000188973 0.0120942
-0.0041574 0.0130391 0.0166296
0.0444086 0.0816362 -0.027401
0.0493218 0.102234 -0.0228657
-0.00151178 0.0308025 0.0200311
-0.0381725 -0.0366607 0.047999
0.00888171 -0.013984 -0.00226767
Vibration 11
0.00188973 -0.00075589 -0.0381725
0.00226767 0 -0.0729434
0.00264562 -0.000566918 -0.0462983
0.00529123 0.000944863 -0.00944863
0.00510226 0.000566918 -0.000944863
0.00359048 0.00113384 0.00510226
0.00302356 -0.00113384 -0.00359048
0.0020787 0.00642507 0.047999
-0.000188973 0.00377945 0.0873053
0.000944863 0.000377945 -0.0317474
0.00925966 -0.0171965 -0.0117163
0.0103935 -0.0181414 0.00491329
0.00075589 -0.000944863 -0.000188973
-0.0113384 0.0181414 -0.0222988
-0.00982658 0.0166296 -0.0370386
0.00434637 -0.00434637 0.0213539
0.00264562 -0.00340151 -0.0334482
-0.0168186 0.0224877 -0.0105825
-0.0179524 0.0228657 0.0130391
0.000188973 -0.00510226 0.0128501
0.0194642 -0.0336371 -0.0103935
0.0198421 -0.0302356 -0.0326923
-0.000566918 -0.00359048 0.0404401
-0.00642507 0.0154958 0.0170075
-0.00377945 0.000944863 -0.00113384
-0.0141729 -0.00453534 0.00736993
-0.00718096 0.00113384 0.0020787
-0.00585815 0.00132281 0.00529123
0.0119053 -0.00510226 0.00699199
-0.00510226 0.00907068 -0.00075589
-0.0020787 0.0183303 -0.000377945
-0.00151178 0.0171965 0.00359048
-0.00359048 0.00907068 0.00718096
0.0455424 -0.0173855 0.020598
-0.0330702 -0.0134171 0.0219208
-0.0105825 -0.00283459 0.00434637
0.00340151 0.000188973 -0.107903
-0.0113384 0.00566918 0.000944863
0.0154958 -0.0309915 -0.0096376
0.0190862 -0.0321253 0.0215429
-0.020598 0.0332592 -0.027401
-0.0164406 0.0285349 -0.0506447
-0.0313695 0.0425188 -0.0115273
-0.0328812 0.0453534 0.0313695
0.0340151 -0.0565028 -0.0103935
0.0338261 -0.0453534 -0.0468652
0 -0.0041574 0.0383614
0.0156847 -0.0107714 0.0548021
-0.0181414 0.0062361 0.0519675
0.0020787 0.00566918 0.0402512
-0.0075589 0.0096376 -0.0128501
-0.0202201 0.0444086 0.0226767
-0.00680301 0.00907068 -0.00377945
-0.000377945 0.0258892 -0.00340151
0.000944863 0.0232436 0.00377945
-0.00226767 0.00869274 0.0103935
-0.00831479 -0.00548021 0.00529123
Vibration 12
0.0100155 -0.00283459 0.0158737
0.0103935 -0.00226767 0.0219208
0.0113384 -0.00226767 0.0126612
0.0111494 -0.00188973 -0.00075589
0.0113384 -0.00321253 0.00132281
0.0109604 -0.00245664 0.0113384
0.00718096 -0.0062361 -0.0075589
0.0109604 0.00170075 0.0156847
0.0107714 0.00283459 0.0211649
-0.000188973 0.00264562 0.00642507
0.0151178 -0.00472431 0.0185193
-0.00340151 0.00510226 0.00132281
-0.0351489 0.0200311 -0.0255113
-0.0555579 0.0296687 -0.041385
-0.0376055 0.0200311 -0.0253223
-0.0506447 0.0289128 -0.0423299
0.0119053 -0.00113384 0.00982658
0.0177634 -0.0130391 0.00132281
0.0181414 -0.0132281 -0.00472431
0.013795 0.00075589 -0.00151178
0.00850377 0.0145509 0.0075589
0.00831479 0.0120942 0.0126612
0.0141729 0.000188973 -0.00869274
0.0599043 -0.0340151 0.0597153
-0.0041574 -0.00321253 -0.00831479
-0.00907068 -0.00604712 -0.00396842
-0.0062361 -0.00472431 -0.00642507
0.0020787 0.00472431 -0.00925966
0.00548021 0.0020787 -0.00812582
-0.0147399 -0.013984 -0.0020787
-0.013795 -0.0113384 -0.0020787
-0.00302356 0.00151178 -0.00661404
0.00453534 0.00925966 -0.0100155
0.00075589 0.00226767 -0.0103935
-0.0188973 -0.0109604 0.0041574
-0.0162516 -0.0117163 0.00075589
0.0100155 -0.00226767 0.0313695
-0.0183303 -0.000377945 -0.00642507
0.0427078 -0.0185193 0.0417629
0.00888171 -0.000188973 0.0102045
-0.0871164 0.0461093 -0.0682191
-0.0531013 0.0264562 -0.0366607
0.0217318 -0.0224877 -0.000188973
0.0217318 -0.0239995 -0.0115273
0.00453534 0.0262672 0.00982658
0.00510226 0.0196532 0.0175745
0.0143619 -0.000188973 -0.0103935
0.00944863 0 -0.0111494
0.0185193 -0.000377945 -0.0107714
0.0856046 -0.0489439 0.0839038
0.0111494 -0.0823921 0.143241
0.16006 -0.0151178 0.0236216
-0.0226767 -0.0230547 0.00151178
-0.0213539 -0.0192752 0.00132281
-0.00132281 0.00491329 -0.00699199
0.0111494 0.0171965 -0.0128501
-0.0113384 -0.0188973 0.0041574
Vibration 13
-0.0109604 0.0096376 0.0262672
-0.0102045 -0.00377945 0.0313695
0.00283459 -0.0119053 0.00699199
0.0141729 -0.00396842 -0.0143619
0.0149288 0.00793685 -0.0164406
0.000944863 0.0145509 0.00453534
0.0179524 0.00718096 -0.0406291
0.00188973 0.034582 0.0062361
0.00377945 0.0585815 0.00226767
-0.0149288 0.0117163 0.0262672
-0.013795 0.0257003 0.0120942
-0.0020787 0.020598 0.00245664
0.00793685 0.00075589 0.00736993
0.00396842 -0.0122832 0.0183303
-0.00774788 -0.00472431 0.02759
0.0266451 -0.00680301 -0.00151178
0.00302356 -0.0268341 -0.00226767
0.00888171 -0.0468652 -0.0143619
0.00925966 -0.0357158 -0.0156847
0.00434637 -0.000566918 -0.00340151
-0.00075589 0.00245664 0.00075589
-0.00075589 -0.0130391 0.000566918
0.00377945 0.0396842 0.0062361
-0.000566918 -0.0134171 -0.0357158
-0.00548021 0.0145509 -0.0253223
-0.0145509 -0.00585815 -0.00472431
-0.00188973 -0.00132281 -0.0171965
-0.000377945 -0.00226767 -0.0100155
0.0245664 -0.0124722 -0.00642507
-0.00283459 0.00359048 -0.0181414
-0.0075589 0.00529123 -0.0124722
-0.0105825 -0.00188973 -0.00377945
-0.00699199 -0.00529123 -0.0020787
0.0633058 -0.0302356 0.00812582
-0.0506447 -0.0243775 0.0328812
-0.041574 0.00869274 0.0183303
-0.0202201 -0.00944863 0.0496998
-0.0525344 0.0438416 -0.0117163
-0.0211649 0.041574 0.00925966
-0.000944863 0.0308025 -0.0075589
0.0111494 -0.0285349 0.020976
-0.0109604 -0.013795 0.0351489
0.0132281 -0.0672742 -0.020976
0.0132281 -0.0498888 -0.0243775
-0.00491329 0.020409 0.00585815
-0.0041574 -0.0109604 0.00321253
-0.0230547 0.0495108 -0.000377945
0.0257003 0.0440306 0.0147399
0.00812582 0.0595264 0.0128501
0.00812582 -0.0102045 -0.0525344
0.00302356 -0.0115273 -0.0542351
-0.0306136 -0.0224877 -0.0249444
-0.00264562 0.00642507 -0.0226767
-0.00982658 0.0103935 -0.0145509
-0.0162516 -0.00434637 0.00188973
-0.0102045 -0.0117163 0.0041574
-0.0319364 -0.0041574 0.0232436
Vibration 14
-0.00453534 -0.00245664 -0.013984
-0.0041574 -0.0041574 -0.00850377
-0.00132281 -0.00548021 0.013606
0.00188973 -0.00302356 0.0289128
0.00264562 -0.00226767 0.00642507
-0.000944863 -0.000566918 -0.000377945
0.000377945 -0.00434637 -0.0117163
-0.000944863 0.00680301 0.00699199
-0.000944863 0.0128501 0.0132281
-0.0103935 0.000377945 -0.0222988
-0.0198421 -0.000377945 -0.0243775
-0.0147399 -0.00359048 -0.0124722
-0.00075589 -0.00585815 0.000377945
-0.00264562 0.00132281 -0.00699199
-0.00661404 0.00283459 -0.0173855
0.0202201 -0.0179524 0.0287238
-0.00132281 -0.00434637 0.013984
0.00661404 -0.0230547 0.000566918
0.00736993 -0.0238105 -0.0100155
-0.000188973 0.00226767 -0.00340151
-0.00831479 0.02759 0.0119053
-0.00812582 0.0196532 0.0188973
0.000188973 0.00188973 -0.0166296
-0.013606 0.00774788 0.000188973
-0.0020787 -0.00396842 -0.00661404
0.00132281 -0.0096376 -0.00529123
-0.0202201 -0.0239995 0.0124722
0.013795 0.0141729 0.00264562
0.00888171 -0.00585815 0.0122832
-0.0542351 -0.0512116 0.0251334
-0.0270231 -0.00944863 0.013984
0.034771 0.0648176 -0.0115273
0.0495108 0.0682191 -0.013795
0.0132281 -0.0255113 0.00699199
0.0330702 0.00453534 -0.0236216
-0.00283459 -0.00245664 -0.00359048
-0.00585815 -0.00529123 -0.020787
-0.00226767 0.00283459 -0.00472431
-0.0294797 0.000188973 -0.0336371
-0.0188973 -0.00548021 -0.0119053
0.00151178 0.00359048 -0.0020787
-0.00472431 0.00585815 -0.0196532
0.0130391 -0.0379835 -0.0020787
0.013606 -0.0438416 -0.0222988
-0.0147399 0.0510226 0.0177634
-0.013795 0.0308025 0.0266451
0.000188973 0.00151178 -0.0179524
-0.00831479 0.00340151 -0.0224877
0.00869274 -0.00113384 -0.0215429
0.00529123 -0.00548021 0.0249444
-0.0130391 0 -0.0574477
-0.0544241 0.0455424 0.0160627
-0.0954312 -0.0986437 0.0404401
-0.0502667 -0.0294797 0.0230547
0.0682191 0.115273 -0.0266451
0.0837149 0.109604 -0.027779
-0.000188973 -0.00529123 -0.00831479
Vibration 15
-0.00491329 0.00264562 0.0120942
-0.00548021 0.00831479 -0.0115273
-0.0102045 0.0102045 -0.0283459
-0.0109604 0.00982658 -0.0122832
-0.0120942 0.00472431 -0.0020787
-0.00831479 0.00113384 0.000377945
-0.013606 0.00453534 0.00529123
-0.00812582 -0.0105825 -0.0156847
-0.00812582 -0.0200311 -0.0300466
0.00944863 -0.00472431 0.0319364
0.0279679 -0.00774788 0.0400622
0.0255113 -0.00566918 0.0270231
0.00283459 -0.00188973 0.0062361
0.00944863 -0.0134171 0.0192752
0.00982658 -0.0124722 0.0296687
-0.0357158 0.020409 -0.0440306
-0.0109604 0.00529123 -0.0351489
-0.0264562 -0.00548021 -0.0306136
-0.0281569 -0.0117163 -0.0141729
-0.0147399 -0.00434637 -0.00170075
0.00132281 -0.00075589 -0.00925966
0.00132281 0.00396842 -0.0266451
-0.0156847 0.00151178 0.0264562
0.0111494 -0.0181414 -0.00566918
-0.00359048 0.00188973 0.0062361
0.000944863 -0.000377945 0.00548021
-0.0109604 -0.0105825 0.0134171
-0.00264562 0.000944863 0.00774788
0.00548021 -0.00188973 0.00831479
-0.0153068 -0.0147399 0.0154958
0.00226767 0.00699199 0.00566918
0.0213539 0.0311805 -0.00566918
0.0154958 0.0236216 -0.00226767
0.0489439 -0.0185193 0.0255113
0.0243775 0.00982658 -0.00699199
0.00944863 0.0124722 -0.00151178