[Molden Format]
[FREQ]
-168.3
16.8
24.0
26.6
28.7
30.8
35.7
39.4
51.0
51.9
75.5
80.0
96.7
100.5
113.7
125.3
136.7
137.8
156.6
166.4
177.7
188.2
203.6
220.2
246.4
253.4
273.4
279.4
288.3
312.9
317.1
341.5
345.8
350.1
356.4
359.8
367.8
384.9
411.2
430.3
434.5
465.6
487.4
505.5
510.4
530.0
535.4
543.1
552.9
580.4
587.4
600.5
611.4
617.3
635.4
655.0
662.4
675.8
677.0
717.9
722.6
744.3
762.1
780.9
789.8
800.4
833.2
851.8
880.2
881.9
896.5
898.3
899.6
937.1
940.2
949.5
972.2
1006.4
1007.7
1008.0
1016.2
1016.2
1022.5
1032.3
1037.3
1048.8
1061.5
1071.0
1080.5
1108.3
1118.6
1127.7
1177.2
1179.7
1183.1
1183.7
1204.3
1212.0
1230.3
1244.7
1259.8
1263.4
1268.1
1272.8
1279.8
1282.9
1287.5
1291.2
1299.5
1317.8
1322.2
1329.0
1337.7
1349.0
1350.1
1353.5
1357.6
1363.9
1374.7
1388.0
1390.6
1409.5
1431.8
1446.7
1481.7
1509.3
1520.1
1527.9
1563.2
1579.4
1579.4
1589.4
1689.6
1699.3
1700.0
1704.6
1708.5
1709.6
1717.4
1775.6
1826.1
1838.4
2025.6
2442.9
2651.8
2655.1
2666.9
2673.9
2676.5
2724.1
2725.5
2731.1
2741.3
2745.1
2745.4
2752.2
2752.6
2756.8
2762.7
2763.3
2764.4
2766.6
2768.7
2771.9
2779.5
       
[FR-COORD]
C -1.86365 -2.97934 -0.227901
C 0.855668 -2.97934 -0.227901
C 2.15712 -0.76156 -0.227901
N 0.900076 1.55392 0.0257003
C -1.76444 1.63707 0.464495
C -3.12391 -0.757591 0.126612
N -2.11196 2.66829 3.19383
C -5.79107 -0.598854 0.0325033
N -7.97691 -0.466951 -0.00377945
C -3.14167 -5.39271 -0.674632
C -2.53053 -6.80698 -2.83232
C -3.729 -9.08486 -3.30173
C -5.55013 -9.95262 -1.57263
C -6.17241 -8.57973 0.589595
C -4.95562 -6.28542 1.01781
O -6.56321 -12.2108 -2.24972
C 4.9388 -0.680112 -0.33656
C 6.3251 -0.713938 1.90598
C 8.95163 -0.631357 1.81867
C 10.1973 -0.520431 -0.50758
C 8.79743 -0.501155 -2.74766
C 6.17109 -0.579579 -2.66659
C 13.0113 -0.451078 -0.610381
C -8.53854 -13.1839 -0.712238
C -3.43042 4.80274 -0.924643
C -2.37387 5.53028 2.83289
C -0.0109604 6.91885 2.22459
C 1.90825 6.15654 0.581091
C 2.04015 3.79136 -0.959792
C 0.181036 9.24964 3.46406
C 2.28751 10.7875 3.12183
C 4.21806 10.0144 1.51102
C 4.0168 7.71877 0.240373
O 3.25108 3.69309 -2.88504
O -4.24848 6.41297 3.77284
O -4.05422 4.62964 -2.99068
H 1.83908 -4.78176 -0.281947
H -0.61435 2.22912 4.36035
H -1.11739 -6.08775 -4.15362
H -3.29852 -10.2007 -4.97168
H -7.58026 -9.2487 1.91902
H -5.43334 -5.18049 2.68965
H 5.35586 -0.809748 3.7169
H 10.0333 -0.658003 3.56535
H 9.76081 -0.414984 -4.56237
H 5.06673 -0.523832 -4.41119
H 13.8634 0.183114 1.1722
H 13.7071 0.819763 -2.0993
H 13.7812 -2.34269 -1.01384
H -9.04555 -14.9339 -1.70737
H -10.1495 -11.8862 -0.667262
H -7.85011 -13.6079 1.19034
H -1.35285 9.88024 4.70221
H 2.41564 12.5926 4.10165
H 5.87346 11.2055 1.22719
H 5.52159 7.13957 -1.06033
H -3.76037 1.95983 3.99053

[FR-NORM-COORD]
Vibration 1
-0.00075589 -0.00472431 -0.00793685
-0.00359048 0.00321253 -0.00302356
-0.00699199 0.00718096 -0.0119053
-0.0062361 0.00566918 -0.0311805
-0.0109604 -0.00831479 -0.0143619
-0.0120942 -0.0075589 -0.0255113
-0.0062361 0.0232436 -0.0546131
-0.0109604 -0.0119053 -0.0168186
-0.0107714 -0.0141729 -0.0103935
0.00113384 -0.0062361 0.000566918
0.00264562 -0.00699199 0.00132281
0.000377945 -0.00491329 0.000566918
-0.00132281 -0.00302356 0.000188973
-0.00113384 -0.0020787 0.000377945
-0.000566918 -0.00302356 0.000566918
-0.00264562 -0.000944863 -0.000188973
-0.00585815 0.00661404 -0.00718096
-0.00869274 0.00491329 -0.00510226
-0.00831479 0.00113384 -0.00170075
-0.00434637 -0.00075589 0
-0.00170075 -0.00132281 -0.00170075
-0.00170075 0.00170075 -0.00529123
-0.00434637 -0.00113384 0.00283459
-0.00170075 -0.0020787 0.000944863
0.159304 -0.199177 0.23905
-0.0988327 0.0544241 -0.216563
-0.0253223 0.0270231 -0.0633058
0.00585815 0.0128501 -0.0211649
0.0113384 0.0181414 -0.0147399
-0.0168186 0.000377945 -0.0247554
-0.00075589 -0.00982658 0.0122832
0.0102045 -0.00396842 0.0234326
0.020787 -0.000566918 0.0145509
0.0096376 -0.00359048 -0.0128501
-0.0325033 0.0383614 -0.0351489
0.0559359 0.0529123 0.238294
0.00340151 0.00604712 0.00982658
0.00925966 0.119053 -0.0515895
0.00566918 -0.00982658 0.00283459
0 -0.00604712 0.000944863
-0.0020787 -0.00170075 0
0 -0.00188973 0.000566918
-0.0111494 0.00869274 -0.00566918
-0.0107714 0.00113384 0.000188973
0.00075589 -0.00321253 -0.00075589
0.00245664 0.000188973 -0.0075589
-0.00566918 -0.00170075 0.00377945
-0.00264562 -0.000377945 0.00396842
-0.00359048 -0.000944863 0.00264562
-0.00132281 -0.00226767 0.000377945
-0.00245664 -0.00283459 0.00170075
-0.00075589 -0.00264562 0.000377945
-0.0292908 -0.0096376 -0.0325033
-0.000377945 -0.020409 0.0319364
0.013795 -0.00566918 0.0423299
0.0379835 -0.00472431 0.0385504
0.020409 0.0321253 -0.00245664
Vibration 2
0.00472431 -0.00340151 0.0153068
0.00510226 -0.00396842 0.00831479
0.00548021 -0.00472431 0.0113384
0.00642507 -0.00340151 0.0145509
0.00812582 -0.00548021 0.0257003
0.00661404 -0.00510226 0.0313695
0.0181414 0.00321253 0.0211649
0.00566918 -0.00604712 0.0510226
0.00529123 -0.00718096 0.068786
0.00283459 0 0.00283459
-0.00548021 0.0181414 -0.0115273
-0.00944863 0.0234326 -0.027779
-0.00491329 0.0105825 -0.0294797
0.00472431 -0.00850377 -0.0147399
0.00850377 -0.0134171 0.00151178
-0.0109604 0.0185193 -0.0472432
0.00548021 -0.00548021 0.0122832
0.0041574 0.00529123 0.0134171
0.0041574 0.00283459 0.0147399
0.00585815 -0.0100155 0.0149288
0.00736993 -0.0200311 0.013984
0.00718096 -0.0175745 0.0126612
0.00604712 -0.0132281 0.0164406
-0.00850377 0.00831479 -0.0506447
-0.00793685 -0.0168186 0.0217318
0.00718096 0.00151178 0.0096376
-0.00264562 0.00774788 -0.0141729
-0.00736993 0.00491329 -0.0187083
0.000377945 -0.0075589 0.00075589
-0.00944863 0.0198421 -0.0355268
-0.0211649 0.0302356 -0.0616051
-0.0258892 0.0281569 -0.0661404
-0.0190862 0.0153068 -0.0442196
0.00377945 -0.0187083 0.00302356
0.0111494 -0.00113384 0.020409
-0.0120942 -0.0238105 0.0236216
0.00396842 -0.00434637 0.00302356
0.0255113 0.0132281 0.0158737
-0.00907068 0.0283459 -0.00982658
-0.0160627 0.0377945 -0.0389284
0.00888171 -0.0190862 -0.0154958
0.0156847 -0.0279679 0.0132281
0.00283459 0.0154958 0.0132281
0.00302356 0.0111494 0.0154958
0.00869274 -0.0298577 0.0141729
0.00831479 -0.0251334 0.0117163
0.00548021 -0.00774788 0.0147399
0.00793685 -0.0190862 0.0124722
0.00434637 -0.0153068 0.0234326
-0.0160627 0.0192752 -0.0663294
-0.00529123 0.0117163 -0.0328812
-0.00359048 -0.0120942 -0.0570697
-0.00585815 0.020976 -0.0317474
-0.0270231 0.0396842 -0.0784236
-0.0351489 0.0359048 -0.0869274
-0.0226767 0.0132281 -0.0476211
0.0243775 0.00188973 0.0332592
Vibration 3
0.00283459 -0.0120942 0.0100155
0.00321253 -0.0113384 0.0119053
0.00132281 -0.0105825 0.00699199
-0.000566918 -0.0109604 0.00075589
-0.000188973 -0.0103935 0.00132281
0.00151178 -0.0119053 0.0062361
0.00075589 -0.00453534 -0.000566918
0.00151178 -0.0126612 0.00472431
0.00151178 -0.0126612 0.00377945
0.00151178 -0.0111494 0.00925966
0.00642507 -0.0147399 0.0130391
-0.00226767 -0.00888171 0.00680301
-0.0164406 0.000566918 -0.00359048
-0.0185193 0.0020787 -0.00510226
-0.00925966 -0.0041574 0.00151178
-0.0272121 0.0075589 -0.0109604
0.00113384 0.000566918 0.00661404
0.00151178 0.0447865 0.00699199
0.000566918 0.0727545 0.00566918
-0.00075589 0.0559359 0.00434637
-0.00113384 0.0075589 0.00396842
-0.000188973 -0.0200311 0.00510226
-0.00188973 0.0925966 0.00151178
-0.0476211 0.0232436 -0.0272121
0.0041574 -0.00944863 -0.00396842
0.00869274 -0.00434637 -0.00434637
0.0130391 -0.0113384 -0.00321253
0.00888171 -0.0149288 -0.00604712
-0.00264562 -0.0134171 -0.00869274
0.0236216 -0.0149288 0.0020787
0.0298577 -0.0230547 0.00396842
0.0255113 -0.0272121 0.000566918
0.0151178 -0.0232436 -0.00491329
-0.0143619 -0.0158737 -0.0154958
0.0102045 0.0020787 -0.0075589
-0.00226767 -0.0143619 -0.00151178
0.00377945 -0.0109604 0.0173855
-0.00151178 -0.00699199 0.00132281
0.0164406 -0.0215429 0.0200311
0.000944863 -0.0107714 0.00888171
-0.02759 0.00812582 -0.0115273
-0.0113384 -0.00302356 0.000188973
0.00264562 0.0591484 0.00831479
0.00075589 0.108659 0.0062361
-0.00170075 -0.00736993 0.00283459
-0.000944863 -0.055369 0.00453534
-0.00585815 0.0736993 0.0100155
-0.0221098 0.126801 0.020976
0.0221098 0.109604 -0.0319364
-0.0563138 0.0294797 -0.0338261
-0.0360938 0.0377945 -0.0370386
-0.0653845 0.013795 -0.0228657
0.0270231 -0.0111494 0.00434637
0.0383614 -0.0258892 0.00812582
0.0302356 -0.0332592 0.00226767
0.0113384 -0.0266451 -0.0075589
-0.00188973 0.000944863 -0.000944863
Vibration 4
-0.00812582 0.00245664 -0.0120942
-0.00812582 0.000188973 -0.0177634
-0.00699199 -0.00075589 -0.013795
-0.00642507 -0.000377945 -0.013606
-0.00510226 0.00132281 -0.00680301
-0.00661404 0.00170075 -0.00302356
0.00302356 0.0020787 -0.00548021
-0.00736993 -0.000188973 0.0115273
-0.0075589 -0.00226767 0.0243775
-0.00944863 0.00302356 -0.0119053
-0.0374166 0.0211649 -0.0315584
-0.034582 0.0188973 -0.0279679
-0.00226767 -0.00170075 -0.0041574
0.0241885 -0.0183303 0.013984
0.0198421 -0.0151178 0.00982658
-0.000377945 -0.00321253 -0.00188973
-0.00661404 0.00075589 -0.00245664
-0.0187083 -0.0177634 0.00510226
-0.0187083 -0.0107714 0.020598
-0.00585815 0.0143619 0.0285349
0.00661404 0.0308025 0.020976
0.00604712 0.0234326 0.00548021
-0.00548021 0.0230547 0.0462983
0.0368497 -0.0291018 0.0294797
-0.00264562 0.00566918 -0.000188973
0.0103935 0.00321253 -0.00340151
0.013795 -0.00302356 -0.00491329
0.0062361 -0.00491329 -0.0126612
-0.00793685 -0.00151178 -0.0185193
0.0266451 -0.00831479 0.00264562
0.0321253 -0.0158737 0.00226767
0.0243775 -0.0179524 -0.00604712
0.0115273 -0.0124722 -0.013795
-0.020409 -0.00075589 -0.0262672
0.0145509 0.00793685 0.000566918
-0.0151178 0.00642507 0.00359048
-0.00982658 -0.00075589 -0.0224877
0.0041574 -0.00264562 -0.00869274
-0.0612271 0.0366607 -0.048377
-0.0561249 0.0321253 -0.0425188
0.047999 -0.0334482 0.0313695
0.0402512 -0.027401 0.0236216
-0.0287238 -0.0370386 -0.00132281
-0.0281569 -0.0249444 0.0262672
0.0162516 0.0491329 0.0270231
0.0158737 0.0353379 -0.000377945
-0.0200311 0.0406291 0.0470542
0.00113384 0.0126612 0.0408181
0.00321253 0.0221098 0.0676522
0.0323143 -0.0270231 0.0279679
0.0270231 -0.0427078 0.0682191
0.0763449 -0.0355268 0.013795
0.0326923 -0.0062361 0.00907068
0.0425188 -0.0200311 0.00850377
0.0285349 -0.0234326 -0.00642507
0.00529123 -0.0141729 -0.0202201
0.00264562 0.00642507 -0.00264562
Vibration 5
0.00453534 -0.00340151 -0.00245664
0.00453534 -0.000377945 -0.00283459
0.00283459 0.000944863 -0.0096376
0.000377945 -0.000377945 -0.0149288
0.00226767 -0.00283459 -0.00472431
0.00321253 -0.00321253 -0.00529123
0.013795 -0.0126612 0.00132281
0.00340151 -0.0020787 -0.00869274
0.00359048 -0.000377945 -0.0120942
0.00548021 -0.00453534 0.00245664
0.0279679 -0.0249444 0.0221098
0.0253223 -0.0241885 0.0249444
-0.00132281 -0.00283459 0.0075589
-0.0228657 0.0164406 -0.0107714
-0.0188973 0.0145509 -0.0132281
-0.00302356 -0.00321253 0.0117163
0.00302356 0.00188973 -0.00491329
-0.00302356 -0.048188 -0.00170075
-0.00302356 -0.0455424 0.00793685
0.00377945 0.00736993 0.013795
0.0102045 0.055369 0.0103935
0.00982658 0.0515895 0.000944863
0.0041574 0.0113384 0.0251334
-0.0349599 0.0232436 -0.0122832
-0.00944863 0.000566918 0.0183303
0.0107714 -0.0117163 0.0128501
0.00491329 -0.00680301 0.000188973
-0.00396842 0.000566918 -0.013984
-0.0062361 0.0020787 -0.0164406
0.0075589 -0.00793685 0.0020787
0.000377945 -0.00113384 -0.0111494
-0.00925966 0.00699199 -0.0266451
-0.0115273 0.00774788 -0.02759
-0.0147399 0.0062361 -0.0219208
0.0171965 -0.0156847 0.0294797
-0.0187083 0.0107714 0.0202201
0.00661404 0.000566918 0.0020787
0.0188973 -0.0160627 -0.00661404
0.0476211 -0.041385 0.034204
0.0430858 -0.0394953 0.0396842
-0.0425188 0.0325033 -0.0234326
-0.0353379 0.0287238 -0.0270231
-0.00831479 -0.0890061 -0.00661404
-0.00793685 -0.0846597 0.0103935
0.0151178 0.0952422 0.0149288
0.0153068 0.0865495 -0.00170075
-0.00472431 0.00944863 0.0300466
0.00982658 0.013984 0.0304246
0.00774788 0.0124722 0.0258892
-0.0313695 0.0188973 -0.00642507
-0.0262672 0.0351489 -0.048566
-0.0684081 0.0334482 0.00226767
0.0147399 -0.0141729 0.0141729
0.0020787 -0.00226767 -0.00944863
-0.0153068 0.0126612 -0.0376055
-0.0190862 0.013984 -0.0391173
0.0177634 -0.0162516 0.00604712
Vibration 6
-0.0170075 0.00774788 0.0100155
-0.0166296 0.00472431 0.0160627
-0.0143619 0.00321253 0.00888171
-0.0124722 0.00472431 0.000944863
-0.0115273 0.00850377 0.00548021
-0.0147399 0.00944863 0.00812582
-0.00359048 0.0111494 0.00566918
-0.0141729 0.0143619 0.0062361
-0.013984 0.0188973 0.00566918
-0.0115273 0.00642507 0.00170075
0.0258892 -0.00245664 0.0177634
0.0451645 -0.0113384 0.0128501
0.0251334 -0.0115273 -0.00812582
-0.0173855 0 -0.0279679
-0.0351489 0.00888171 -0.0226767
0.0527234 -0.0241885 -0.00718096
-0.0145509 0.00075589 0.00680301
-0.0124722 0.0192752 0.00566918
-0.0124722 0.013606 0.0020787
-0.0147399 -0.0107714 -0.000188973
-0.0170075 -0.027401 0.00113384
-0.0170075 -0.0211649 0.00453534
-0.0147399 -0.0196532 -0.00340151
0.041385 -0.0317474 -0.0266451
-0.00661404 0.0154958 0.0111494
0.0102045 0.0126612 0.00718096
0.0141729 0.00359048 0.000944863
0.00377945 -0.000377945 -0.00944863
-0.0117163 -0.000377945 -0.0100155
0.0298577 0 0.00510226
0.034582 -0.00774788 -0.00188973
0.0232436 -0.0113384 -0.013795
0.00793685 -0.00774788 -0.0175745
-0.0232436 -0.00661404 -0.0168186
0.0173855 0.0215429 0.0132281
-0.0177634 0.0173855 0.0143619
-0.0181414 0.00377945 0.0253223
-0.00510226 0.00340151 0.00453534
0.041385 -0.00283459 0.0340151
0.075967 -0.0188973 0.0258892
-0.0357158 0.00188973 -0.0464873
-0.0672742 0.0164406 -0.0366607
-0.0109604 0.0377945 0.0075589
-0.0105825 0.027779 0.00113384
-0.0187083 -0.0455424 -0.00075589
-0.0190862 -0.0338261 0.00548021
-0.0120942 0.00793685 -0.0145509
-0.0119053 -0.0468652 -0.0251334
-0.0200311 -0.0287238 0.0281569
0.0744552 -0.0461093 -0.0183303
0.0270231 -0.048566 -0.0614161
0.0185193 -0.0075589 -0.0130391
0.0387394 0.00359048 0.013984
0.0468652 -0.0105825 0.00188973
0.0260782 -0.0168186 -0.0198421
-0.00113384 -0.0111494 -0.0264562
-0.00661404 0.0192752 0.00680301
Vibration 7
-0.00075589 0.00113384 -0.0236216
-0.00075589 -0.00132281 -0.0213539
0.000944863 -0.00226767 -0.0153068
0.0020787 -0.00188973 -0.0143619
0.00359048 -0.000944863 -0.0100155
0.000944863 0.00226767 -0.0239995
0.0130391 -0.0247554 0.00113384
0.00170075 0.00661404 -0.0355268
0.0020787 0.00982658 -0.0478101
-0.0041574 0.00188973 -0.0179524
-0.0128501 -0.0041574 -0.0162516
-0.0151178 -0.00548021 -0.00453534
-0.00793685 -0.000566918 0.00548021
-0.000566918 0.00680301 0.00302356
0.00113384 0.00793685 -0.00888171
-0.00925966 -0.00359048 0.0177634
0.00132281 -0.00188973 -0.0062361
-0.00774788 0.041196 0
-0.0075589 0.0436527 0.00925966
0.00170075 0.00245664 0.0120942
0.0105825 -0.0398732 0.0062361
0.0102045 -0.0408181 -0.00302356
0.0020787 0.00359048 0.0234326
0.00359048 -0.00359048 0.034582
-0.00548021 0.0105825 0.0291018
0.0132281 -0.0222988 0.0262672
0.00472431 -0.0134171 0.0115273
-0.00302356 0 -0.0041574
0.00850377 -0.000566918 -0.00245664
-0.000377945 -0.0128501 0.0115273
-0.0153068 0.00359048 -0.00642507
-0.0245664 0.0192752 -0.0249444
-0.0183303 0.0171965 -0.0222988
0.0234326 -0.00188973 0.00661404
0.0222988 -0.0294797 0.0521564
-0.00359048 0.0366607 0.0264562
-0.00226767 -0.0020787 -0.0232436
0.0160627 -0.0353379 -0.00699199
-0.0177634 -0.00831479 -0.0236216
-0.0217318 -0.0105825 -0.00283459
0.00396842 0.0113384 0.0100155
0.00699199 0.013606 -0.0111494
-0.0147399 0.0731324 -0.0020787
-0.0145509 0.0776677 0.013984
0.0177634 -0.0712427 0.00850377
0.0170075 -0.0706758 -0.00793685
-0.00793685 0.0580146 0.00869274
0.00793685 -0.0400622 -0.0109604
0.00642507 -0.0075589 0.0839038
0.00245664 -0.00907068 0.0447865
0 -0.00812582 0.0398732
0.0171965 0.00604712 0.0317474
0.0062361 -0.0245664 0.0258892
-0.0200311 0.00396842 -0.00642507
-0.0366607 0.0323143 -0.0408181
-0.0245664 0.0289128 -0.0351489
0.0153068 -0.0304246 0.00075589
Vibration 8
0.00529123 -0.00245664 0.00302356
0.00529123 0.00075589 -0.000566918
0.00264562 0.00245664 -0.00170075
0.000377945 0.000944863 0
0.000188973 -0.00170075 0.000188973
0.00302356 -0.00377945 0.00396842
-0.00188973 0.00226767 -0.00151178
0.00264562 -0.00736993 0.00907068
0.00245664 -0.0103935 0.013984
0.0062361 -0.00321253 0.00453534
0.00585815 -0.00377945 0.00491329
0.00188973 -0.00132281 0.00283459
-0.00188973 0.00188973 0.000377945
0.000566918 0.00113384 0.00170075
0.00472431 -0.00170075 0.00377945
-0.00793685 0.00548021 -0.00283459
0.00245664 0.00529123 -0.00434637
0.00396842 0.00453534 -0.00434637
0.00302356 0.00472431 -0.0062361
0.00245664 0.00585815 -0.00774788
0.00188973 0.00774788 -0.00604712
0.00113384 0.0075589 -0.0041574
0.00340151 -0.00680301 0.0062361
-0.0177634 0.013795 -0.0102045
-0.000377945 -0.00529123 -0.00774788
-0.0041574 0.00151178 -0.0062361
-0.00264562 0.000944863 -0.000944863
-0.000566918 0.000188973 0.0020787
-0.00302356 0.00226767 -0.00132281
-0.00188973 -0.00113384 0.00264562
0.00188973 -0.00453534 0.00982658
0.00434637 -0.00585815 0.0134171
0.00302356 -0.00340151 0.00907068
-0.00774788 0.00510226 -0.00434637
-0.00736993 0.00151178 -0.0126612
-0.00302356 -0.0122832 -0.0062361
0.00736993 0.00188973 -0.00188973
-0.00188973 0.00529123 -0.000377945
0.00831479 -0.00585815 0.0062361
0.00132281 -0.00151178 0.00283459
-0.00113384 0.00264562 0.00075589
0.0062361 -0.0020787 0.00453534
0.00453534 0.00340151 -0.0041574
0.00585815 0.00340151 -0.00793685
-0.00113384 0.00831479 -0.00774788
0.000566918 0.00888171 -0.00377945
-0.0285349 0.416685 -0.128312
0.0309915 -0.361127 -0.281569
0.0096376 -0.103179 0.467896
-0.0232436 0.0173855 -0.013606
-0.0113384 0.0219208 -0.013984
-0.0258892 0.00850377 -0.00850377
-0.00359048 -0.000188973 -0.000188973
0.00302356 -0.0062361 0.0126612
0.00736993 -0.00869274 0.0192752
0.00472431 -0.0041574 0.0113384
-0.00170075 0.00188973 -0.00132281
Vibration 9
-0.0102045 0.00226767 -0.0334482
-0.00925966 -0.00264562 -0.0565028
-0.00226767 -0.0075589 -0.0323143
0.0062361 -0.0041574 -0.00642507
0.0075589 -0.00151178 -0.00075589
-0.000188973 0.00226767 0.00075589
0.0120942 -0.00113384 -0.000377945
-0.00151178 0.0119053 0.0502667
-0.00170075 0.0228657 0.0984547
-0.0168186 0.00529123 -0.0298577
0.00340151 -0.0202201 -0.00774788
0.00925966 -0.0264562 0.00736993
-0.0075589 -0.00736993 -0.00075589
-0.0353379 0.0221098 -0.02759
-0.0389284 0.0264562 -0.0417629
0.00680301 -0.0202201 0.020976
-0.00151178 -0.0117163 -0.0226767
-0.0132281 -0.00642507 -0.0151178
-0.0132281 0.00548021 -0.000944863
-0.00151178 0.0119053 0.00566918
0.0105825 0.00075589 -0.00188973
0.0103935 -0.0109604 -0.0160627
-0.00132281 0.0330702 0.0217318
0.00774788 -0.0145509 0.0260782
0.0115273 -0.00566918 -0.00869274
-0.000377945 -0.00264562 -0.00472431
-0.00302356 0.0020787 -0.00113384
0.00718096 -0.00170075 0.0124722
0.0171965 -0.00226767 0.0130391
-0.0153068 0.00774788 -0.0100155
-0.0154958 0.0096376 -0.00245664
-0.00264562 0.0041574 0.0154958
0.00850377 -0.000944863 0.0228657
0.0389284 0.000188973 0.0258892
-0.00642507 -0.00925966 -0.0111494
0.0224877 -0.00869274 -0.0119053
-0.013606 -0.00453534 -0.0822031
0.0185193 0.0062361 -0.00585815
0.0162516 -0.0360938 -0.00264562
0.0279679 -0.0468652 0.0257003
-0.0529123 0.0408181 -0.0366607
-0.0582036 0.0459203 -0.0599043
-0.0226767 -0.00982658 -0.020409
-0.0224877 0.0111494 0.00491329
0.0200311 0.00321253 0.00321253
0.0194642 -0.0166296 -0.0219208
-0.0164406 0.0389284 0.0268341
-0.00283459 0.0391173 0.0262672
0.0154958 0.0391173 0.0251334
0.0321253 -0.0370386 0.0531013
-0.00566918 -0.0302356 -0.00642507
0.000188973 0.0251334 0.0377945
-0.0247554 0.0103935 -0.0228657
-0.0251334 0.0145509 -0.0102045
-0.00132281 0.0041574 0.0232436
0.0185193 -0.00396842 0.0357158
0.0179524 -0.0062361 0.00699199
Vibration 10
-0.0126612 -0.00151178 0.0143619
-0.0122832 -0.0130391 0.02759
-0.00321253 -0.0185193 0.0241885
0.00529123 -0.0130391 0.0217318
0.0041574 -0.00283459 0.013984
-0.00510226 0.00396842 0.00491329
0 -0.00132281 0.0107714
-0.00340151 0.0175745 -0.020976
-0.00226767 0.0296687 -0.0459203
-0.0183303 0.00321253 0.00396842
-0.0160627 0.0103935 -0.000377945
-0.0117163 0.00944863 -0.00661404
-0.00869274 0.000377945 -0.00774788
-0.0160627 -0.00321253 -0.0075589
-0.0211649 -0.00132281 -0.00188973
0.00188973 -0.00321253 -0.0111494
-0.00359048 -0.0238105 0.013795
0.00944863 -0.0440306 0.00529123
0.00831479 -0.020976 -0.00888171
-0.00585815 0.0226767 -0.0145509
-0.0183303 0.0300466 -0.00661404
-0.0170075 0.00510226 0.00774788
-0.00736993 0.0627389 -0.02759
0.0309915 -0.0328812 0.00736993
0.0168186 0.000188973 0.00774788
0.00491329 -0.00075589 0.00812582
0.00377945 -0.00170075 0.00113384
0.00718096 -0.0096376 0.00869274
0.0126612 -0.0173855 0.020976
-0.0041574 0.00982658 -0.0192752
-0.00925966 0.0141729 -0.0319364
-0.00472431 0.00529123 -0.0221098
0.00377945 -0.00699199 -0.00132281
0.0213539 -0.0245664 0.0264562
0.00699199 0.00188973 0.0103935
0.0423299 0.00888171 -0.00075589
-0.0196532 -0.0171965 0.0338261
-0.00321253 -0.00245664 0.0147399
-0.0166296 0.0162516 0.00226767
-0.00907068 0.0145509 -0.00925966
-0.0175745 -0.00774788 -0.0115273
-0.0266451 -0.0041574 -0.00170075
0.020598 -0.0740773 0.0096376
0.0188973 -0.034204 -0.0156847
-0.0296687 0.0576366 -0.0113384
-0.0268341 0.0117163 0.013984
-0.0120942 0.130391 -0.0491329
-0.0300466 0.027401 -0.0682191
0.0196532 0.061794 0.0281569
0.0472432 -0.0398732 0.0113384
0.0126612 -0.0563138 0.0226767
0.0546131 -0.0236216 0.00075589
-0.00699199 0.0158737 -0.0257003
-0.0166296 0.0239995 -0.0489439
-0.00812582 0.00774788 -0.0313695
0.00736993 -0.0141729 0.00604712
-0.00283459 0.00226767 0.00793685
Vibration 11
-0.013984 0 0
-0.0141729 0.000944863 -0.00642507
-0.0143619 0.00075589 -0.0096376
-0.013606 0.00075589 -0.0115273
-0.013606 0.00245664 -0.00907068
-0.0141729 0.000188973 -0.00151178
-0.00925966 -0.00396842 -0.00359048
-0.0147399 -0.00321253 0.0177634
-0.0153068 -0.0062361 0.0374166
-0.00434637 -0.00718096 0.00869274
-0.0128501 0.00434637 -0.00151178
0.00396842 -0.00548021 0.00396842
0.02759 -0.0257003 0.0185193
0.041574 -0.0408181 0.0321253
0.0251334 -0.0306136 0.0272121
0.041574 -0.0336371 0.0226767
-0.0147399 -0.00113384 -0.00812582
-0.0188973 -0.00321253 -0.00548021
-0.0188973 -0.00226767 -0.00113384
-0.0156847 0.000944863 0.00075589
-0.0115273 0.000944863 -0.00170075
-0.0117163 -0.000377945 -0.0062361
-0.0154958 0.00453534 0.00604712
-0.0512116 0.02759 -0.0578256
0.0351489 0.0238105 -0.00340151
-0.000566918 -0.00283459 0.00774788
0.00188973 -0.00529123 0.0096376
-0.00774788 0.00188973 -0.00529123
-0.00566918 0.000566918 -0.00340151
0.00774788 -0.0105825 0.0181414
-0.000188973 -0.00283459 0.00377945
-0.0149288 0.0105825 -0.0202201
-0.0177634 0.0119053 -0.0224877
0.00434637 -0.00264562 0.00302356
0.00188973 -0.000566918 0.0105825
0.129446 0.0791795 -0.0368497
-0.013606 0.00113384 -0.00736993
-0.0107714 -0.013606 -0.00548021
-0.0336371 0.0219208 -0.0143619
-0.00283459 0.00359048 -0.00377945
0.0663294 -0.061983 0.0476211
0.0351489 -0.0419519 0.0374166
-0.0221098 -0.00529123 -0.00736993
-0.0215429 -0.00340151 0.000566918
-0.00850377 0.00245664 0
-0.00888171 0 -0.00793685
-0.0198421 0.00680301 0.00736993
-0.0143619 0.00472431 0.00680301
-0.0122832 0.00529123 0.00869274
-0.0706758 0.0474321 -0.08277
-0.0105825 0.0801244 -0.114517
-0.137005 -0.000944863 -0.0330702
0.0175745 -0.0192752 0.034582
0.0041574 -0.00642507 0.0102045
-0.0236216 0.0188973 -0.0359048
-0.0272121 0.020598 -0.0376055
-0.0117163 -0.00151178 -0.0062361
Vibration 12
0.0111494 -0.00491329 0.00604712
0.0113384 0.00188973 0.00736993
0.00642507 0.00510226 0.00907068
0.00132281 0.00188973 0.0126612
0.00075589 -0.00718096 0.0122832
0.00585815 -0.00812582 0.00907068
-0.00680301 -0.00566918 0.00793685
0.00548021 -0.0113384 0.0109604
0.00548021 -0.0122832 0.013984
0.0075589 -0.00188973 0.00113384
0.0162516 -0.0107714 0.0096376
-0.000377945 -0.000377945 0.000944863
-0.0239995 0.0171965 -0.0149288
-0.0330702 0.0262672 -0.0230547
-0.0170075 0.0156847 -0.0153068
-0.0430858 0.0296687 -0.0262672
0.00604712 0.013606 0.0075589
0.00888171 0.0171965 0.00604712
0.00907068 0.00944863 0.00283459
0.00699199 -0.00170075 0.00113384
0.00396842 0.00472431 0.00302356
0.00377945 0.0126612 0.0062361
0.00736993 -0.0234326 -0.00302356
0.0376055 -0.0253223 0.0425188
0.0258892 -0.0122832 -0.00472431
-0.00888171 -0.00585815 0.00113384
-0.00472431 -0.00869274 0.00888171
-0.0198421 0.00529123 -0.0154958
-0.0226767 0.0041574 -0.0141729
0.0105825 -0.0243775 0.0353379
0.00510226 -0.0190862 0.0249444
-0.0200311 0.00491329 -0.0166296
-0.0313695 0.0160627 -0.0351489
-0.048188 0.00396842 -0.0294797
-0.0130391 -0.00510226 -0.00888171
0.089573 0.00264562 -0.0255113
0.0154958 0.0041574 0.00718096
-0.00850377 -0.0020787 0.0115273
0.0359048 -0.0257003 0.0224877
0.00566918 -0.0062361 0.00642507
-0.0542351 0.0428968 -0.0372276
-0.0243775 0.0224877 -0.0215429
0.0105825 0.0239995 0.00736993
0.0107714 0.0102045 0.00170075
0.00188973 0.00113384 0.00188973
0.00170075 0.0153068 0.0075589
0.0154958 -0.0353379 -0.00283459
0.0149288 -0.0249444 -0.00075589
-0.00869274 -0.0285349 -0.0096376
0.0476211 -0.0360938 0.0565028
0.00604712 -0.0665184 0.101478
0.114895 -0.0117163 0.0175745
0.0262672 -0.0393063 0.061983
0.0188973 -0.0321253 0.0472432
-0.0292908 0.0141729 -0.0325033
-0.0489439 0.0323143 -0.0627389
-0.00793685 -0.0062361 0.00472431
Vibration 13
0.00377945 -0.0096376 0.0221098
0.00245664 -0.00151178 0.0222988
-0.00548021 0.00396842 -0.00907068
-0.0149288 0.000188973 -0.0427078
-0.013606 0.00434637 -0.0359048
-0.00340151 -0.00831479 -0.00566918
0.00264562 -0.00302356 -0.020976
-0.00491329 -0.0317474 0.00774788
-0.00718096 -0.061794 0.0239995
0.0111494 -0.0162516 0.0330702
0.0255113 -0.0170075 0.0370386
0.0130391 -0.00566918 0.0162516
-0.0132281 0.00302356 -0.00661404
-0.013795 -0.00661404 -0.00075589
-0.00226767 -0.0156847 0.0185193
-0.0447865 0.0292908 -0.0459203
-0.00566918 0.0075589 -0.00850377
-0.0096376 0.00661404 -0.00604712
-0.0096376 0.00359048 -0.00170075
-0.00566918 0.000566918 0.000188973
-0.00188973 0.00472431 -0.0020787
-0.00226767 0.00793685 -0.00661404
-0.00548021 -0.00869274 0.00529123
0.0230547 -0.0296687 0.00340151
-0.0143619 0.0389284 -0.00075589
0.00680301 -0.00377945 0.00245664
-0.000377945 0.00302356 -0.0113384
0.0132281 -0.00699199 0.00925966
0.0113384 0.0020787 -0.00510226
-0.0175745 0.0187083 -0.0377945
-0.0130391 0.0149288 -0.0264562
0.0147399 -0.00944863 0.0187083
0.0262672 -0.0188973 0.0340151
0.0321253 0.0115273 0.00718096
0.0162516 -0.00642507 0.0251334
-0.0020787 0.0871164 -0.00774788
0.00944863 0.00188973 0.0455424
0.00529123 -0.0147399 -0.0296687
0.0449755 -0.0238105 0.0538572
0.0211649 -0.00264562 0.0162516
-0.027401 -0.00359048 -0.013606
-0.00774788 -0.020598 0.020409
-0.0126612 0.00699199 -0.00774788
-0.0124722 0.00226767 0
0.00132281 0.00453534 -0.000566918
0.00075589 0.0100155 -0.00831479
-0.0062361 -0.0147399 0.00774788
0.00170075 -0.00869274 0.00850377
-0.0113384 -0.0107714 0.00359048
0.00925966 -0.013795 -0.0177634
0.00812582 -0.0510226 0.089951
0.096376 -0.0631168 -0.0306136
-0.0340151 0.0325033 -0.0646286
-0.0289128 0.0287238 -0.0495108
0.0255113 -0.0194642 0.0383614
0.0449755 -0.0336371 0.062172
0.0041574 -0.00434637 -0.0183303
Vibration 14
-0.00491329 0.00113384 0.0162516
-0.00566918 0.00321253 0.0217318
-0.00472431 0.00321253 -0.000566918
-0.00510226 0.00680301 -0.0306136
-0.00377945 0.00774788 -0.0249444
-0.00510226 0.00434637 -0.0062361
-0.00283459 0.00472431 -0.0190862
-0.00566918 -0.000566918 0.00472431
-0.00642507 -0.00888171 0.0202201
-0.00132281 -0.00188973 0.0228657
0.00604712 0.00283459 0.0215429
0.00529123 0.0062361 0.0100155
-0.00264562 0.00359048 0.00075589
-0.00396842 -0.00548021 0.00604712
-0.00377945 -0.00699199 0.0168186
-0.00982658 0.0128501 -0.0190862
-0.00453534 -0.00944863 -0.000566918
-0.00359048 -0.020598 -0.00170075
-0.00359048 -0.0170075 -0.00283459
-0.00529123 -0.00151178 -0.00302356
-0.00585815 -0.00529123 -0.00264562
-0.00566918 -0.0100155 -0.00151178
-0.00604712 0.0239995 -0.00377945
0.0105825 -0.0122832 -0.00925966
0.00302356 0.0020787 -0.0154958
-0.00188973 0.00340151 -0.0219208
0.0107714 -0.00585815 0.00642507
-0.00604712 0.0173855 -0.0238105
0.0253223 0.00302356 -0.00113384
0.0315584 -0.0370386 0.0610381
0.020598 -0.0232436 0.055369
-0.0211649 0.0285349 -0.0190862
-0.0325033 0.047999 -0.0529123
0.0961871 -0.0168186 0.0428968
-0.00944863 0.00812582 -0.041574
-0.0459203 -0.00699199 -0.000377945
-0.00434637 0.00302356 0.0417629
-0.00283459 0.00302356 -0.020787
0.0119053 0.00510226 0.0287238
0.00925966 0.0109604 0.00774788
-0.00699199 -0.00982658 0.000566918
-0.00736993 -0.0122832 0.0192752
-0.00226767 -0.0292908 -0.00151178
-0.00245664 -0.0230547 -0.00377945
-0.00680301 -0.00075589 -0.00283459
-0.0062361 -0.0107714 -0.00113384
-0.0122832 0.0385504 -0.00585815
-0.0185193 0.0260782 -0.00793685
0.0122832 0.0302356 0.00245664
0.00699199 -0.00302356 -0.0239995
0.00566918 -0.0194642 0.0226767
0.0325033 -0.0311805 -0.0215429
0.0540462 -0.0685971 0.104691
0.0404401 -0.0506447 0.10299
-0.0410071 0.0500777 -0.0444086
-0.0557469 0.082959 -0.096565
-0.00264562 0.00359048 -0.0202201
Vibration 15
-0.00642507 0.000377945 0.0323143
-0.00548021 0.000188973 0.0181414
-0.00113384 -0.00151178 -0.0243775
0.00302356 0.000377945 -0.0383614
0.0111494 0.000188973 -0.00396842
-0.000944863 0.00548021 0.0109604
0.0408181 -0.0117163 0.00491329
0.0020787 0.0453534 0.00226767
0.00604712 0.106581 -0.00869274
-0.00510226 -0.00151178 0.0419519
0.00283459 0.0105825 0.0355268
0.00566918 0.0141729 0.0179524
0.000944863 0.00321253 0.00812582
0.00075589 -0.0149288 0.0194642
-0.00396842 -0.013984 0.0355268
-0.00302356 0.0149288 -0.0238105
-0.00170075 -0.00510226 -0.0291018
-0.0147399 0.000566918 -0.0202201
-0.0151178 0.00321253 -0.00340151
-0.00113384 -0.0020787 0.00377945
0.0128501 -0.0115273 -0.00472431
0.0115273 -0.0111494 -0.0215429
-0.000377945 0.00472431 0.0253223
0.0119053 -0.0183303 -0.0268341
-0.00321253 -0.020787 -0.0020787
-0.00132281 -0.0173855 -0.00151178
-0.0117163 -0.00491329 -0.0117163
-0.00680301 -0.00075589 -0.00907068
-0.00226767 0.00831479 -0.0260782