[Molden Format]
[FREQ]
-11.3
21.1
25.1
29.2
33.6
38.3
41.0
46.9
51.1
52.3
57.4
63.3
80.8
83.2
88.4
96.8
112.9
115.5
135.0
135.6
139.5
155.8
168.0
180.0
203.5
208.4
220.6
242.1
248.4
266.7
284.5
295.5
312.1
323.2
337.5
351.7
357.3
361.1
382.2
389.2
417.5
473.9
479.5
483.6
487.8
492.8
523.9
535.8
549.3
567.4
576.6
583.3
613.2
617.2
629.2
639.6
643.8
652.5
679.5
691.3
707.1
709.7
725.3
733.8
766.7
807.5
818.5
826.4
829.7
851.9
883.5
885.0
894.4
902.0
902.9
933.1
938.3
972.0
981.3
1001.6
1011.0
1014.2
1018.1
1022.6
1031.9
1035.9
1043.6
1070.7
1079.2
1082.1
1105.4
1126.5
1174.0
1174.6
1177.6
1180.4
1184.1
1185.3
1188.2
1204.8
1210.4
1240.1
1250.8
1261.7
1266.9
1276.8
1281.8
1286.9
1292.3
1299.9
1304.0
1322.5
1330.1
1333.3
1341.9
1344.8
1347.2
1353.3
1365.2
1366.6
1379.9
1392.2
1425.6
1477.0
1494.9
1509.4
1522.2
1525.1
1530.5
1552.8
1578.8
1594.3
1603.9
1648.6
1679.4
1694.6
1696.4
1697.3
1701.4
1706.8
1708.5
1909.3
2393.8
2456.0
2600.9
2652.1
2654.0
2664.8
2672.4
2673.1
2727.9
2730.9
2740.9
2745.2
2745.4
2747.2
2747.5
2751.3
2756.2
2760.5
2764.3
2765.1
2766.9
2769.7
2778.8
       
[FR-COORD]
C -1.49421 -2.2637 -1.13365
C 1.14347 -2.2637 -1.13365
C 2.45079 0.0357158 -1.13365
N 1.21207 2.28487 -1.10322
C -1.33263 2.30773 -1.19752
C -2.76864 0.0653845 -1.23116
N 3.05399 -1.37024 5.54918
C -5.44203 0.184248 -1.32772
N -7.62448 0.284782 -1.42882
C -2.86218 -4.6612 -0.985681
C -4.49868 -5.40745 -2.92926
C -5.77935 -7.68287 -2.76826
C -5.42219 -9.20372 -0.617562
C -3.80685 -8.48147 1.33849
C -2.51957 -6.19736 1.13327
O -6.7879 -11.3705 -0.702411
C 5.22585 0.120942 -1.13988
C 6.59307 -1.53484 0.401378
C 9.21676 -1.44129 0.422921
C 10.5006 0.290073 -1.10795
C 9.13116 1.92242 -2.66716
C 6.50368 1.83984 -2.68436
C 13.3129 0.387016 -1.04653
C -6.64182 -13.0076 1.4224
C 3.78644 0.69164 5.64593
C 3.24523 5.71755 -0.230736
C -2.58099 4.80274 -1.28218
C -3.56478 5.90804 0.895919
C -3.46708 4.65836 3.44743
C -2.81078 6.00895 -3.61883
C -4.04912 8.32575 -3.76792
C -5.06503 9.42274 -1.5972
C -4.82901 8.21256 0.729056
O -1.27802 4.33768 4.38322
O 3.00296 5.64253 1.957
O 4.74983 2.94155 5.88272
H 2.17753 -4.04723 -1.12212
H 0.309726 4.84488 3.54475
H -4.76476 -4.19122 -4.5737
H -7.05888 -8.30251 -4.25188
H -3.54437 -9.6531 2.99937
H -1.25062 -5.59264 2.65185
H 5.60247 -2.88504 1.61496
H 10.2761 -2.71478 1.64331
H 10.1178 3.26507 -3.8711
H 5.43788 3.11408 -3.91041
H 14.1539 -1.49534 -1.31582
H 13.9946 1.09963 0.787638
H 14.1147 1.62082 -2.50937
H -7.92967 -14.5433 0.877778
H -7.3259 -12.0644 3.13184
H -4.71997 -13.7294 1.66768
H -2.02749 5.14005 -5.31315
H -4.23431 9.27459 -5.58414
H -6.05317 11.2236 -1.72343
H -5.64348 9.05859 2.42433
H 4.08597 4.10108 4.48149

[FR-NORM-COORD]
Vibration 1
-0.0126612 -0.00907068 -0.000944863
-0.0126612 -0.00944863 0.00774788
-0.0119053 -0.00982658 0.00869274
-0.0113384 -0.00944863 0.00453534
-0.0111494 -0.00888171 0.00075589
-0.0117163 -0.00869274 -0.00283459
0.144375 0.0684081 0.0874943
-0.0115273 -0.00718096 -0.00907068
-0.0111494 -0.00566918 -0.0141729
-0.013984 -0.00888171 -0.00982658
-0.0130391 -0.00075589 -0.013984
-0.0149288 -0.000188973 -0.0236216
-0.0179524 -0.00869274 -0.0289128
-0.0187083 -0.0171965 -0.0251334
-0.0170075 -0.0173855 -0.0156847
-0.0200311 -0.00680301 -0.0377945
-0.0119053 -0.0109604 0.0119053
-0.0145509 -0.00604712 0.0192752
-0.0145509 -0.00680301 0.0222988
-0.0120942 -0.0124722 0.0181414
-0.00944863 -0.0175745 0.0105825
-0.00944863 -0.0168186 0.00736993
-0.0120942 -0.0126612 0.0219208
-0.0213539 -0.0160627 -0.0445975
0.114517 0.0808803 0.0457314
-0.0119053 -0.00377945 -0.0249444
-0.0109604 -0.00869274 0.00170075
-0.000566918 -0.00548021 0.00453534
0.0102045 -0.00302356 0.00548021
-0.020787 -0.0120942 0.000944863
-0.0202201 -0.0115273 0.00340151
-0.0100155 -0.00812582 0.00642507
-0.000188973 -0.00510226 0.00718096
0.0141729 -0.0041574 -0.00434637
-0.00151178 0.0122832 -0.0232436
0.082581 0.0995886 -0.000944863
-0.0126612 -0.00944863 0.0107714
0.0107714 -0.00529123 -0.0117163
-0.0107714 0.00548021 -0.00982658
-0.0141729 0.0062361 -0.0270231
-0.020976 -0.0238105 -0.0294797
-0.0179524 -0.0247554 -0.0126612
-0.0166296 -0.00075589 0.0238105
-0.0168186 -0.00283459 0.0285349
-0.00736993 -0.0221098 0.00718096
-0.00736993 -0.0211649 0.00113384
-0.0119053 -0.013795 0.0309915
-0.0149288 -0.00529123 0.0202201
-0.0096376 -0.0187083 0.0183303
-0.0226767 -0.0126612 -0.0512116
-0.020787 -0.0226767 -0.0406291
-0.0219208 -0.0185193 -0.0476211
-0.0291018 -0.0147399 -0.00132281
-0.0279679 -0.013984 0.00302356
-0.0096376 -0.00774788 0.00850377
0.00774788 -0.00226767 0.0096376
0.0455424 0.0672742 -0.00982658
Vibration 2
-0.00869274 0.00283459 0.0164406
-0.00850377 0.000377945 0.0117163
-0.00585815 -0.00132281 0.00944863
-0.00302356 0.000377945 0.00736993
-0.00321253 0.00283459 0.0126612
-0.00604712 0.00434637 0.0211649
-0.0432747 0.0219208 -0.0020787
-0.00642507 0.00831479 0.034582
-0.00680301 0.0117163 0.0474321
-0.00736993 0.00188973 0.0103935
-0.0257003 0.0179524 0.0192752
-0.0162516 0.0119053 0.00718096
0.0115273 -0.0111494 -0.013606
0.0268341 -0.0258892 -0.020787
0.0164406 -0.0188973 -0.00850377
0.020598 -0.0162516 -0.0255113
-0.00566918 -0.00661404 0.00718096
-0.00888171 -0.0020787 0.0149288
-0.00869274 -0.00944863 0.0119053
-0.00529123 -0.0217318 0.000566918
-0.00245664 -0.0258892 -0.00642507
-0.00264562 -0.0183303 -0.00302356
-0.00491329 -0.0302356 -0.00377945
0.0589595 -0.0466762 -0.0515895
-0.0291018 0.0171965 -0.00472431
0.00680301 0 -0.0179524
-0.000188973 0.0041574 0.0041574
0.00888171 0.0192752 0.000377945
0.0147399 0.0360938 0.00831479
-0.00642507 -0.0100155 -0.00283459
-0.00283459 -0.00888171 -0.0132281
0.00642507 0.00642507 -0.0164406
0.0122832 0.020598 -0.00982658
0.0170075 0.0419519 0.00510226
0.0130391 0.013984 -0.0168186
-0.0134171 0.0105825 -0.00718096
-0.0100155 -0.000566918 0.00907068
0.0149288 0.034771 -0.00321253
-0.0461093 0.0349599 0.0351489
-0.0292908 0.0239995 0.0134171
0.0459203 -0.0423299 -0.0355268
0.027779 -0.0300466 -0.0134171
-0.0117163 0.00718096 0.0230547
-0.0109604 -0.00566918 0.0177634
0.000188973 -0.0353379 -0.0147399
-0.000377945 -0.0215429 -0.00831479
-0.0113384 -0.034393 0.00434637
-0.000188973 -0.0234326 -0.00812582
-0.00302356 -0.0400622 -0.0107714
0.0604712 -0.0462983 -0.0566918
0.0769118 -0.075967 -0.0283459
0.0665184 -0.0391173 -0.0886281
-0.013795 -0.0219208 0
-0.0075589 -0.0198421 -0.0185193
0.00925966 0.0075589 -0.0243775
0.0194642 0.0325033 -0.0124722
-0.000377945 0.0120942 -0.0122832
Vibration 3
-0.00869274 0.00812582 -0.00188973
-0.00831479 0.00604712 0.00132281
-0.00548021 0.00434637 0.00075589
-0.00359048 0.00548021 -0.000377945
-0.00340151 0.00793685 -0.00718096
-0.00604712 0.00944863 -0.00925966
0.0531013 -0.0251334 0.0145509
-0.00529123 0.013795 -0.0192752
-0.00472431 0.0181414 -0.0291018
-0.00718096 0.00793685 0.00396842
-0.0330702 0.0153068 0.0226767
-0.0258892 0.0117163 0.02759
0.00774788 -0.000377945 0.0134171
0.0317474 -0.00718096 -0.00396842
0.0236216 -0.00302356 -0.00869274
0.0128501 -0.00377945 0.0192752
-0.00548021 0.00075589 -0.000566918
-0.00566918 -0.0107714 -0.0126612
-0.00548021 -0.0179524 -0.0190862
-0.00472431 -0.0130391 -0.0128501
-0.00453534 0.000566918 0.00113384
-0.00472431 0.00736993 0.00718096
-0.00434637 -0.0222988 -0.0213539
0.05518 -0.020976 0.00321253
0.0260782 -0.0158737 0.0221098
-0.00831479 -0.000944863 0.0355268
0.00170075 0.0102045 -0.0109604
-0.0134171 0.0062361 -0.0156847
-0.0377945 -0.00321253 -0.0194642
0.0245664 0.0181414 -0.00925966
0.0325033 0.0222988 -0.0122832
0.0179524 0.0185193 -0.0171965
-0.00548021 0.0103935 -0.0190862
-0.0462983 -0.0181414 -0.00491329
-0.0257003 -0.0147399 0.0330702
-0.00472431 -0.00377945 0.0311805
-0.0102045 0.00491329 0.00321253
-0.0374166 -0.0215429 0.00982658
-0.0582036 0.0236216 0.0328812
-0.0447865 0.0173855 0.041574
0.0563138 -0.0154958 -0.013606
0.0417629 -0.00850377 -0.0217318
-0.00585815 -0.0145509 -0.0170075
-0.00566918 -0.027779 -0.0291018
-0.0041574 0.00548021 0.00699199
-0.00453534 0.0179524 0.0179524
-0.0109604 -0.0241885 -0.0287238
0.00359048 -0.0289128 -0.0217318
-0.00491329 -0.0213539 -0.020976
0.0523454 -0.0217318 0.0119053
0.0799354 -0.0381725 0.0224877
0.062361 -0.0151178 -0.0351489
0.0362827 0.0211649 -0.00529123
0.0508336 0.0285349 -0.0107714
0.0245664 0.0221098 -0.0198421
-0.0171965 0.00736993 -0.0232436
-0.0188973 -0.00793685 0.034393
Vibration 4
-0.00869274 -0.000188973 -0.0177634
-0.00831479 -0.0020787 -0.0230547
-0.00642507 -0.00340151 -0.0194642
-0.00472431 -0.00245664 -0.0170075
-0.00472431 -0.000377945 -0.0143619
-0.00680301 0.000944863 -0.0143619
-0.00132281 -0.0126612 -0.0158737
-0.00680301 0.00453534 -0.00869274
-0.00699199 0.00831479 -0.00396842
-0.00869274 0.000377945 -0.00925966
-0.0357158 0.00661404 0.0111494
-0.034393 0.00661404 0.0221098
-0.00548021 0 0.0124722
0.0213539 -0.0062361 -0.00736993
0.0188973 -0.00604712 -0.0181414
-0.0075589 0.00075589 0.0253223
-0.0062361 -0.00321253 -0.00774788
-0.013795 -0.0096376 -0.00793685
-0.0143619 0.00075589 0.0173855
-0.00699199 0.0173855 0.0427078
0.000944863 0.0192752 0.0374166
0.00151178 0.00850377 0.0117163
-0.00850377 0.0349599 0.0765339
0.0268341 -0.00869274 0.0156847
0.0141729 -0.0175745 -0.0272121
-0.00113384 -0.00188973 -0.0219208
-0.00226767 0.00113384 -0.00566918
0.0102045 -0.000944863 0.00113384
0.0179524 -0.00680301 -0.00188973
-0.0117163 0.00548021 -0.00245664
-0.00793685 0.00831479 0.00793685
0.00548021 0.00661404 0.0149288
0.0143619 0.00188973 0.0115273
0.020409 -0.0111494 -0.00944863
0.0130391 -0.00793685 -0.020598
0.0332592 -0.0243775 -0.0408181
-0.00982658 -0.00283459 -0.0279679
0.0183303 -0.0111494 -0.0130391
-0.0576366 0.0113384 0.0181414
-0.054991 0.0117163 0.0377945
0.0432747 -0.0109604 -0.013984
0.0385504 -0.0105825 -0.0326923
-0.0192752 -0.0217318 -0.0260782
-0.020787 -0.00321253 0.0190862
0.00718096 0.0300466 0.0542351
0.00812582 0.00982658 0.00718096
0.0075589 0.0374166 0.109982
-0.0370386 0.0614161 0.0771008
0.00226767 0.0228657 0.0721875
0.0183303 -0.00642507 0.0294797
0.0542351 -0.0166296 0.0309915
0.0309915 -0.00944863 -0.0187083
-0.0221098 0.00699199 -0.00774788
-0.0151178 0.0119053 0.0103935
0.00869274 0.00907068 0.0230547
0.0243775 0.000566918 0.0170075
0.0262672 -0.020787 -0.034393
Vibration 5
0.00642507 -0.00925966 0.0164406
0.00642507 -0.00812582 0.00812582
0.00510226 -0.00718096 0.00510226
0.00340151 -0.00793685 0.00548021
0.00321253 -0.00907068 0.0120942
0.00434637 -0.00982658 0.0249444
0.0309915 -0.0253223 -0.00869274
0.00359048 -0.0111494 0.0474321
0.00245664 -0.0120942 0.0695419
0.00340151 -0.00812582 0.00869274
-0.0075589 0.0111494 0.0102045
-0.0190862 0.0171965 0.00170075
-0.0194642 0.00321253 -0.00812582
-0.00604712 -0.0179524 -0.0115273
0.00548021 -0.0234326 -0.00302356
-0.034582 0.0130391 -0.0143619
0.00491329 0.00075589 -0.00132281
0.0156847 0.000188973 -0.0115273
0.0151178 0.0171965 -0.0111494
0.0041574 0.0349599 -0.000377945
-0.0062361 0.0326923 0.00661404
-0.00566918 0.0151178 0.00548021
0.00321253 0.0566918 0.00396842
-0.041196 0.00264562 -0.0219208
0.0221098 -0.0222988 -0.00510226
-0.00302356 -0.00396842 0.0141729
0.00453534 -0.00907068 -0.00434637
-0.00170075 0.00661404 -0.0153068
-0.0154958 0.0228657 -0.00699199
0.0143619 -0.0245664 -0.0134171
0.0185193 -0.0238105 -0.0338261
0.0130391 -0.00736993 -0.0445975
0.00264562 0.00774788 -0.0357158
-0.020976 0.0192752 0.0041574
-0.00699199 -0.00982658 0.013606
0.0122832 -0.0187083 -0.00113384
0.0075589 -0.0075589 0.00321253
-0.0147399 0.00680301 0.00869274
-0.0075589 0.0221098 0.0183303
-0.0283459 0.0328812 0.00302356
-0.00472431 -0.0298577 -0.0200311
0.0153068 -0.0396842 -0.00491329
0.0243775 -0.0128501 -0.0188973
0.0232436 0.0170075 -0.0183303
-0.0149288 0.0451645 0.0132281
-0.013606 0.013606 0.0107714
0.0185193 0.0648176 -0.00510226
-0.00491329 0.0521564 0.00869274
-0.00453534 0.0708647 0.0117163
-0.05518 0.0153068 -0.0247554
-0.0283459 0.00075589 -0.0156847
-0.0462983 -0.013606 -0.0311805
0.0192752 -0.0372276 -0.00472431
0.0264562 -0.0357158 -0.0408181
0.0166296 -0.00642507 -0.0600933
-0.00226767 0.020409 -0.0444086
0.00151178 -0.0166296 0.00548021
Vibration 6
-0.0143619 0.00604712 0.00944863
-0.0147399 0.00359048 0.00736993
-0.0126612 0.00264562 0.00548021
-0.0117163 0.00302356 0.00491329
-0.0119053 0.00510226 0.00529123
-0.013606 0.0062361 0.00869274
0.00925966 -0.0156847 -0.00736993
-0.013606 0.00510226 0.0096376
-0.013795 0.00264562 0.0105825
-0.0117163 0.00396842 0.0100155
0.0315584 -0.0234326 -0.0153068
0.0474321 -0.0330702 -0.0221098
0.0187083 -0.0134171 -0.00359048
-0.0296687 0.0179524 0.0247554
-0.0436527 0.0264562 0.0313695
0.0447865 -0.0294797 -0.0166296
-0.0128501 -0.000377945 0.00434637
-0.013795 -0.0181414 -0.013606
-0.013795 -0.0217318 -0.013606
-0.0122832 -0.00642507 0.00491329
-0.0109604 0.0115273 0.0224877
-0.0109604 0.013795 0.0215429
-0.0122832 -0.00869274 0.00661404
0.0190862 -0.0128501 -0.0020787
0.0268341 -0.0213539 -0.0211649
-0.0160627 0.00718096 0.00491329
-0.00529123 0.00831479 -0.000377945
0.0020787 0.0200311 -0.00321253
-0.00774788 0.0258892 0
-0.000566918 0.00245664 -0.00396842
0.013984 0.0096376 -0.0102045
0.0232436 0.0228657 -0.0124722
0.0166296 0.027779 -0.00925966
-0.0119053 0.0187083 0.00680301
-0.00661404 -0.000566918 0.00566918
0.048566 -0.0289128 -0.0385504
-0.0168186 0.00226767 0.00736993
-0.00718096 0.00907068 0.0102045
0.0536682 -0.0383614 -0.0298577
0.0822031 -0.0561249 -0.0425188
-0.0544241 0.034771 0.0406291
-0.0780457 0.0493218 0.0508336
-0.0145509 -0.0294797 -0.0268341
-0.0149288 -0.0360938 -0.027779
-0.00982658 0.0234326 0.0368497
-0.0096376 0.0262672 0.0332592
-0.0126612 -0.0096376 0.0126612
-0.013795 -0.00377945 0.00548021
-0.0103935 -0.0130391 0.00396842
0.0506447 -0.0330702 -0.0196532
-0.0304246 -0.00944863 -0.0238105
0.0228657 0.0132281 0.0453534
-0.00699199 -0.0075589 -0.00188973
0.0183303 0.00529123 -0.0128501
0.0355268 0.0292908 -0.0168186
0.0230547 0.0379835 -0.0113384
0.0258892 -0.020787 -0.0211649
Vibration 7
-0.0117163 -0.00548021 0.00245664
-0.0113384 -0.00850377 0.00680301
-0.0103935 -0.0096376 -0.00151178
-0.00850377 -0.00869274 -0.00491329
-0.00831479 -0.00566918 -0.00566918
-0.00982658 -0.00472431 -0.00585815
-0.0134171 -0.00831479 0.0449755
-0.00925966 -0.0020787 -0.0156847
-0.00869274 0.000377945 -0.0251334
-0.0124722 -0.00510226 0.00434637
-0.00472431 -0.0111494 0
0.000188973 -0.013984 -0.00188973
-0.00283459 -0.0111494 0.00075589
-0.0132281 -0.00377945 0.00661404
-0.0179524 -0.000944863 0.00831479
0.00529123 -0.0162516 -0.00321253
-0.0105825 -0.00283459 -0.00850377
-0.000377945 0.0306136 0.0175745
-0.000944863 0.0508336 0.0173855
-0.0128501 0.0351489 -0.0105825
-0.0236216 -0.00302356 -0.041196
-0.0228657 -0.0213539 -0.0393063
-0.013795 0.0604712 -0.00793685
0.00850377 -0.0177634 -0.00453534
-0.0103935 -0.00888171 0.0366607
0.0190862 -0.0245664 0
0.00170075 -0.000566918 -0.00434637
0.020787 0.00869274 -0.000566918
0.0156847 0.00472431 -0.00245664
0.00264562 0.000566918 -0.00396842
0.0268341 0.013795 0.00132281
0.0496998 0.0257003 0.00604712
0.0453534 0.0224877 0.00491329
0.0145509 -0.0115273 -0.00548021
0.0232436 -0.0296687 0.000377945
-0.00736993 -0.00925966 0.0281569
-0.0122832 -0.00888171 0.0151178
0.0170075 -0.0202201 -0.00604712
-0.00188973 -0.013795 -0.00245664
0.00699199 -0.0188973 -0.00566918
-0.0170075 -0.000566918 0.00944863
-0.0253223 0.0041574 0.0124722
0.00831479 0.0419519 0.0370386
0.00793685 0.0789905 0.0391173
-0.0328812 -0.0179524 -0.0651955
-0.0321253 -0.0489439 -0.0599043
0.00283459 0.0644397 0.0151178
-0.0224877 0.0874943 -0.0153068
-0.0224877 0.0502667 -0.0211649
0.0179524 -0.0239995 -0.0096376
-0.00113384 -0.0230547 -0.00548021
0.0115273 -0.00793685 -0.000188973
-0.013984 -0.00793685 -0.00718096
0.0287238 0.0154958 0.0020787
0.0706758 0.0376055 0.0105825
0.061794 0.0313695 0.00831479
0.00491329 -0.0171965 0.0156847
Vibration 8
-0.00245664 -0.000377945 -0.0145509
-0.00283459 -0.00340151 -0.0377945
-0.00075589 -0.0041574 -0.0362827
0.00132281 -0.00359048 -0.0311805
0.000188973 -0.000944863 -0.0122832
-0.00226767 0.00075589 0.00661404
0.020787 0.0177634 -0.0166296
-0.0041574 -0.000188973 0.0561249
-0.00642507 -0.00283459 0.104124
-0.00245664 -0.000377945 -0.00869274
0.00869274 -0.0115273 -0.0134171
0.013606 -0.0143619 -0.0100155
0.00661404 -0.0041574 -0.00188973
-0.0062361 0.00888171 0.0041574
-0.0103935 0.0107714 0.000377945
0.0149288 -0.00944863 -0.000377945
-0.00075589 -0.00736993 -0.027779
-0.0117163 -0.00718096 -0.0175745
-0.0119053 -0.00699199 0.00151178
-0.00132281 -0.00699199 0.0105825
0.00982658 -0.00869274 -0.00113384
0.00982658 -0.00869274 -0.0200311
-0.0020787 -0.00132281 0.0362827
0.00340151 0.00340151 0.0103935
-0.0117163 0.0283459 0.0020787
-0.00642507 -0.00510226 -0.0154958
0.00718096 0.00283459 -0.00491329
-0.00529123 -0.0113384 -0.00302356
-0.0145509 -0.0323143 -0.0124722
0.0321253 0.0251334 0.00434637
0.0453534 0.0330702 0.0156847
0.0315584 0.0177634 0.0170075
0.00585815 -0.00491329 0.00812582
-0.013795 -0.0394953 -0.0151178
-0.0264562 -0.00188973 -0.0175745
-0.0512116 0.0430858 0.0243775
-0.00434637 -0.00434637 -0.0521564
-0.0158737 -0.027779 -0.0128501
0.013795 -0.0187083 -0.0192752
0.0228657 -0.0239995 -0.013984
-0.0126612 0.0170075 0.0109604
-0.0190862 0.020409 0.00377945
-0.020598 -0.00604712 -0.0230547
-0.020976 -0.0062361 0.0100155
0.0187083 -0.00944863 0.00529123
0.0181414 -0.00869274 -0.0272121
0.00548021 -0.00831479 0.110549
-0.0239995 0.0634948 0.0194642
0.0109604 -0.0498888 0.00245664
0.0126612 -0.00396842 0.00925966
-0.0132281 0.0115273 -0.000566918
0.00377945 0.0111494 0.0300466
0.0423299 0.0370386 0.00283459
0.0665184 0.0514005 0.0230547
0.0417629 0.0238105 0.0253223
-0.00434637 -0.0170075 0.00907068
-0.0404401 0.0323143 0.0102045
Vibration 9
0.00188973 0.00736993 -0.0020787
0.00170075 0.00699199 -0.00434637
0.00188973 0.00680301 -0.00377945
0.00264562 0.00718096 -0.00245664
0.00264562 0.00736993 -0.00132281
0.00226767 0.00736993 0.000188973
0.0062361 -0.0188973 0.0226767
0.0020787 0.0075589 0.00491329
0.00188973 0.00774788 0.0096376
0.00151178 0.00774788 -0.00151178
0.00453534 0.00604712 -0.00340151
0.00491329 0.00566918 -0.00340151
0.00245664 0.0075589 -0.00170075
-0.000944863 0.00982658 0.000377945
-0.00132281 0.0100155 0.000377945
0.00396842 0.00680301 -0.0020787
0.00188973 0.00340151 -0.00302356
-0.0020787 0.00548021 0.00245664
-0.00170075 -0.00113384 0.00226767
0.00226767 -0.0109604 -0.00472431
0.00604712 -0.0122832 -0.0100155
0.00585815 -0.00472431 -0.00869274
0.00188973 -0.00434637 0.00226767
0.00472431 0.00680301 -0.0020787
0.00774788 -0.0190862 0.0162516
0.0170075 -0.00491329 0.0115273
-0.00302356 0.00453534 -0.00283459
-0.00642507 0.00359048 -0.00377945
-0.000377945 0.00925966 -0.00132281
-0.013606 -0.00226767 -0.00529123
-0.0306136 -0.0117163 -0.00944863
-0.0355268 -0.013606 -0.0107714
-0.0224877 -0.00548021 -0.00793685
0.000188973 0.00585815 -0.00453534
0.0149288 -0.0141729 0.0111494
0.0102045 -0.0196532 0.0096376
0.00151178 0.00680301 -0.00661404
0.00151178 -0.000188973 -0.00510226
0.00661404 0.00472431 -0.00472431
0.00736993 0.00396842 -0.00472431
-0.00340151 0.0115273 0.0020787
-0.00359048 0.0115273 0.00170075
-0.00529123 0.0113384 0.00661404
-0.00566918 0.000944863 0.00793685
0.0100155 -0.0188973 -0.0141729
0.00869274 -0.00548021 -0.0119053
0.0143619 -0.0506447 0.372276
-0.0245664 0.348088 -0.123777
0.0145509 -0.280057 -0.223744
0.00831479 0.00434637 -0.00377945
0.00075589 0.00548021 -0.00283459
0.00566918 0.0105825 0.000188973
-0.00982658 -0.000944863 -0.0041574
-0.0404401 -0.0177634 -0.0117163
-0.0498888 -0.0215429 -0.0141729
-0.0257003 -0.00680301 -0.00869274
0.00812582 -0.020598 0.00982658
Vibration 10
0.00151178 -0.0111494 0.0126612
0.00151178 -0.0103935 0.0232436
0.00170075 -0.0100155 0.020787
0.000377945 -0.0107714 0.0179524
0.000566918 -0.0113384 0.0107714
0.00132281 -0.0111494 0.00245664
-0.0145509 0.0279679 -0.041196
0.00226767 -0.0105825 -0.0217318
0.00340151 -0.0096376 -0.0457314
0.000377945 -0.0109604 0.00850377
-0.00566918 -0.00283459 0.0102045
-0.0102045 -0.000377945 0.00661404
-0.00831479 -0.0075589 0.00132281
-0.00113384 -0.0168186 -0.00113384
0.00283459 -0.0185193 0.00264562
-0.0143619 -0.00340151 -0.00132281
0.00151178 -0.0062361 0.0134171
0.0119053 -0.0122832 -0.00264562
0.0120942 -0.00718096 -0.0143619
0.00170075 0.00491329 -0.00907068
-0.00888171 0.0122832 0.00774788
-0.00831479 0.0062361 0.0183303
0.00132281 0.0175745 -0.0177634
-0.0128501 -0.0107714 -0.00718096
-0.0096376 0.0258892 -0.0328812
-0.0336371 0.0124722 -0.00869274
0.00680301 -0.00812582 0.0103935
0.00434637 -0.0075589 0.00888171
-0.0062361 -0.0119053 0.0075589
0.0253223 0.000188973 0.0128501
0.0442196 0.0103935 0.0143619
0.0427078 0.0113384 0.0132281
0.0215429 0.00188973 0.0102045
-0.00793685 0.00075589 0.0171965
-0.0308025 0.0306136 -0.00774788
-0.0041574 0.0228657 -0.0255113
0.00188973 -0.0100155 0.0313695
-0.00944863 0.0111494 0.0194642
-0.00699199 0.0020787 0.013984
-0.0151178 0.00680301 0.00793685
0.000944863 -0.0224877 -0.00548021
0.0075589 -0.0255113 0.00132281
0.0200311 -0.020787 -0.00548021
0.0198421 -0.0126612 -0.0268341
-0.0168186 0.0226767 0.0128501
-0.0162516 0.0109604 0.0298577
0.0128501 0.000566918 0.141729
-0.00548021 0.175556 -0.076156
-0.00377945 -0.100722 -0.120753
-0.0181414 -0.00585815 -0.00869274
-0.00585815 -0.0147399 -0.00226767
-0.013984 -0.0164406 -0.0147399
0.0262672 -0.00075589 0.013606
0.0606602 0.0177634 0.0166296
0.0582036 0.0200311 0.0143619
0.0198421 0.00264562 0.00907068
-0.00944863 0.0302356 -0.0170075
Vibration 11
0.00793685 0.00377945 0.0100155
0.00793685 0.00453534 0.0115273
0.00661404 0.00510226 0.00188973
0.00566918 0.00434637 -0.0103935
0.00548021 0.00359048 -0.00642507
0.00661404 0.00302356 0.00548021
-0.0708647 0.0196532 0.0704868
0.00604712 0.00151178 0.0171965
0.00548021 0.000377945 0.0296687
0.00642507 0.00472431 0.00907068
0.00188973 0.0134171 0.00944863
-0.0020787 0.0154958 0.00472431
-0.000944863 0.00850377 -0.000377945
0.00359048 -0.000188973 -0.000944863
0.00699199 -0.00170075 0.0041574
-0.00548021 0.0117163 -0.00510226
0.00661404 0.0062361 0.00472431
0.00434637 0.0338261 0.0360938
0.00434637 0.0311805 0.0338261
0.0062361 -0.00188973 -0.00245664
0.00774788 -0.0281569 -0.0311805
0.00736993 -0.0219208 -0.0255113
0.00680301 -0.0117163 -0.0117163
0 0.000944863 -0.013795
0.00132281 -0.00264562 0
-0.0257003 0.0113384 0.00188973
0.00548021 0.00340151 -0.00604712
-0.0249444 -0.0185193 -0.00831479
-0.0360938 -0.0381725 -0.0164406
0.0364717 0.0258892 0.00302356
0.0323143 0.0245664 0.00888171
-0.00434637 -0.00151178 0.00472431
-0.0326923 -0.0230547 -0.00340151
-0.0377945 -0.0428968 -0.0134171
-0.0432747 0.00396842 0.000377945
0.0920297 -0.0325033 -0.0856046
0.00907068 0.00529123 0.0188973
-0.0359048 -0.0317474 -0.00340151
0.00151178 0.0187083 0.0132281
-0.00604712 0.0222988 0.00510226
0.00396842 -0.00566918 -0.00472431
0.00925966 -0.0075589 0.00472431
0.00283459 0.0566918 0.0595264
0.00359048 0.0544241 0.0587705
0.00907068 -0.0529123 -0.0578256
0.00774788 -0.0387394 -0.0430858
-0.00245664 -0.0128501 -0.034582
0.0175745 -0.0332592 -0.0075589
0.00585815 -0.000188973 -0.00245664
-0.00321253 0.00491329 -0.0171965
0.00680301 -0.00680301 -0.00680301
0.000188973 -0.0020787 -0.0238105
0.0634948 0.0453534 0.00548021
0.0576366 0.0430858 0.0160627
-0.0100155 -0.00434637 0.00812582
-0.0595264 -0.0427078 -0.00642507
0.0364717 -0.0213539 -0.0498888
Vibration 12
0.00359048 -0.00472431 -0.0285349
0.00340151 0.00548021 -0.0319364
-0.00566918 0.0105825 -0.00793685
-0.0134171 0.00529123 0.00774788
-0.0141729 -0.00321253 0.00377945
-0.00566918 -0.00831479 -0.00869274
-0.0202201 0.00736993 0.0304246
-0.00642507 -0.020598 0.00245664
-0.0075589 -0.0334482 0.013984
0.0166296 -0.0122832 -0.0332592
0.00188973 -0.0134171 -0.0200311
0.00396842 -0.0143619 -0.00907068
0.0196532 -0.0124722 -0.0105825
0.0457314 -0.0177634 -0.0298577
0.0434637 -0.0181414 -0.041385
0.0100155 -0.00718096 0.00925966
-0.00585815 0.013795 0.00113384
-0.0128501 0.0115273 0.00491329
-0.0126612 -0.000377945 0.00340151
-0.00585815 -0.00982658 -0.00151178
0.000566918 -0.00188973 0.00113384
0 0.0105825 0.00302356
-0.00510226 -0.0291018 -0.0100155
-0.0372276 0.0374166 0.0472432
-0.00340151 0.0020787 0.0164406
-0.0190862 0.00377945 0.0130391
-0.013984 -0.00283459 0.00491329
0.00604712 0.0145509 0.00453534
-0.00566918 0.0234326 0.00907068
-0.0190862 -0.0120942 0
0.00453534 0 -0.00359048
0.0326923 0.0224877 -0.00151178
0.0313695 0.0289128 0.00151178
-0.0113384 0.0230547 0.0217318
-0.00925966 0.000377945 0.0141729
0.0162516 -0.00453534 -0.00075589
0.0105825 0.0096376 -0.0510226
-0.00642507 0.013606 0.0247554
-0.013795 -0.0130391 -0.0171965
-0.00944863 -0.013984 0.00226767
0.0659514 -0.0213539 -0.0355268
0.0606602 -0.020787 -0.0546131
-0.0187083 0.0179524 0.00718096
-0.0175745 -0.00340151 0.00472431
0.00585815 -0.00604712 0.000944863
0.00472431 0.0160627 0.00472431
-0.0187083 -0.0379835 0.0096376
0.00453534 -0.0126612 -0.0198421
-0.000188973 -0.0515895 -0.0262672
-0.0648176 0.0514005 0.0735103
-0.0283459 0.0890061 0.0224877
-0.0532903 0.0041574 0.0746442
-0.0387394 -0.0281569 -0.00075589
0.0020787 -0.00718096 -0.00699199
0.054991 0.034582 -0.00302356
0.0504557 0.0451645 0.00245664
0.00831479 -0.00321253 0.00396842
Vibration 13
-0.0075589 -0.00151178 -0.0190862
-0.00718096 -0.0109604 -0.0302356
0.00075589 -0.0158737 -0.0128501
0.00907068 -0.0115273 0.0156847
0.00925966 -0.00132281 0.020409
0.00113384 0.00359048 0.000566918
0.00812582 0.00850377 -0.0326923
0.0020787 0.0173855 -0.00831479
0.00321253 0.0323143 -0.020409
-0.0103935 0 -0.0181414
-0.0117163 -0.00850377 -0.0132281
-0.00434637 -0.0126612 -0.00566918
0.00321253 -0.00680301 -0.00283459
0.00245664 0.00377945 -0.00604712
-0.00434637 0.00642507 -0.013984
0.0141729 -0.013984 0.00453534
0.000944863 -0.0234326 -0.0211649
0.000377945 -0.00529123 -0.00170075
-0.000188973 0.00907068 0.0122832
-0.00113384 0.00075589 0.0020787
-0.000377945 -0.0313695 -0.0321253
-0.000188973 -0.0410071 -0.041385
-0.00264562 0.0283459 0.0308025
0.00453534 0.00604712 0.020787
0.0130391 0.00585815 -0.0147399
0.00718096 -0.0258892 0.0166296
0.0141729 0.00132281 0.0251334
-0.0141729 -0.00245664 0.013606
-0.0160627 0.0258892 0.0279679
0.0383614 0.00359048 0.0230547
0.0224877 -0.00661404 0.00680301
-0.0211649 -0.0188973 -0.00718096
-0.0368497 -0.0153068 -0.00434637
-0.0175745 0.0661404 0.0453534
-0.0145509 0.00226767 0.0158737
0.0164406 0.00283459 0.00151178
-0.0126612 -0.0141729 -0.0498888
-0.0175745 0.0604712 0.0410071
-0.0183303 -0.0130391 -0.0153068
-0.00434637 -0.0202201 -0.00264562
0.00793685 0.00925966 -0.00302356
-0.00359048 0.013606 -0.0173855
0 0.000377945 0.00434637
-0.000188973 0.0285349 0.0325033
-0.000566918 -0.0453534 -0.0478101
-0.00075589 -0.0591484 -0.0591484
0.0179524 0.0394953 0.0170075
-0.027401 0.0134171 0.0457314
-0.000188973 0.0532903 0.0532903
0.0102045 -0.00113384 0.027779
-0.00680301 0.020787 0.00812582
0.0041574 0.0113384 0.0385504
0.0682191 0.0107714 0.0330702
0.0419519 -0.00604712 0.00510226
-0.0406291 -0.0304246 -0.020787
-0.0663294 -0.0228657 -0.0145509
0.00869274 0.0134171 0.0128501
Vibration 14
-0.0115273 0.00869274 0.0325033
-0.0107714 0.00396842 0.0404401
-0.00548021 0.000188973 0.0162516
-0.00113384 0.00340151 -0.00396842
-0.000377945 0.00812582 -0.00151178
-0.00604712 0.0105825 0.0122832
0.0313695 -0.0279679 -0.00736993
-0.00510226 0.0230547 0.00113384
-0.00396842 0.0389284 -0.0103935
-0.00604712 0.00548021 0.02759
-0.0145509 0.0175745 0.0298577
0.00718096 0.00396842 0.0075589
0.0326923 -0.020409 -0.0141729
0.0393063 -0.0323143 -0.0151178
0.020787 -0.0198421 0.00510226
0.0608492 -0.0374166 -0.0402512
-0.00548021 -0.00472431 0.00888171
-0.00245664 -0.000188973 0.0111494
-0.00245664 0.00321253 0.00944863
-0.00548021 -0.000188973 0.00321253
-0.00831479 -0.0096376 -0.00434637
-0.00812582 -0.0117163 -0.00113384
-0.00585815 0.00642507 0.00434637
-0.0697309 0.0317474 0.0219208
0.00377945 -0.0177634 -0.013984
0.00774788 0.00359048 -0.0234326
0.00245664 0.0096376 -0.00491329
-0.00661404 0.00075589 -0.00377945
0.00491329 -0.00680301 -0.00774788
0.00944863 0.0185193 -0.000566918
0.00170075 0.0151178 0.00396842
-0.013795 0.00170075 0.00321253
-0.0168186 -0.00510226 0.000377945
0.0117163 -0.0128501 -0.0243775
0.00736993 0.00396842 -0.0236216
-0.0251334 -0.00585815 -0.0153068
-0.0147399 0.00170075 0.0600933
0.00642507 -0.00642507 -0.0302356
-0.0372276 0.0376055 0.048188
0.00321253 0.0122832 0.00736993
0.0614161 -0.0536682 -0.0336371
0.0281569 -0.0308025 0.00321253
0.00075589 0.000188973 0.0143619
-0.000377945 0.00831479 0.0132281
-0.0105825 -0.0149288 -0.0119053
-0.0102045 -0.0185193 -0.00642507
-0.00151178 0.00831479 0.0041574
-0.00831479 0.00736993 0.00491329
-0.00812582 0.00869274 0.00510226
-0.0754001 0.0389284 0.0147399
-0.128123 0.102234 -0.0404401
-0.0952422 0.00170075 0.133037
0.0198421 0.0281569 -0.00075589
0.00718096 0.0221098 0.00699199
-0.0226767 -0.00302356 0.00566918
-0.0264562 -0.0147399 0.000566918
-0.0221098 -0.0160627 -0.0247554
Vibration 15
-0.0119053 0 -0.000377945
-0.0111494 -0.00604712 -0.00132281
-0.00529123 -0.00982658 0.00188973
0.00151178 -0.00529123 0.00302356
0.00283459 -0.000566918 -0.00245664
-0.00472431 0.00321253 -0.00132281
-0.0865495 0.0882502 -0.0459203
-0.00434637 0.0166296 0.00453534
-0.00396842 0.0321253 0.0120942
-0.0134171 0.00075589 0.000377945
-0.0194642 0.00113384 0.00529123
-0.00831479 -0.00566918 0.0020787
0.00718096 -0.0122832 -0.00548021
0.00888171 -0.0102045 -0.0075589
-0.00151178 -0.0041574 -0.00491329
0.0255113 -0.0239995 -0.0120942
-0.00548021 -0.00982658 -0.00188973
0.00132281 -0.0262672 -0.0258892
0.00170075 -0.020976 -0.0330702
-0.00661404 0.00699199 -0.00812582
-0.013984 0.0264562 0.0187083
-0.0132281 0.0151178 0.0190862
-0.00699199 0.0198421 -0.00982658
-0.0192752 0.00699199 0.0149288
-0.00188973 0.05518 0.0128501
0.0487549 -0.0215429 0.0476211
0.00604712 0.000377945 -0.00831479
0.00075589 -0.00264562 -0.00907068
0.00170075 -0.0119053 -0.0134171
0.00680301 -0.00151178 -0.00907068
-0.00377945 -0.00718096 -0.0113384