[Molden Format]
[FREQ]
-1693.3
13.3
17.7
25.1
26.0
30.2
38.5
40.7
41.9
44.2
54.4
64.9
76.9
81.4
97.0
109.2
111.4
131.7
150.1
157.1
168.7
177.0
180.8
217.8
219.6
230.0
254.4
269.0
278.1
293.3
313.9
330.3
346.1
351.0
356.0
366.5
371.1
391.7
416.8
436.9
465.0
478.4
492.2
506.7
520.9
524.6
543.5
558.5
577.4
591.1
602.9
613.7
615.9
630.0
637.3
649.7
669.1
682.4
705.1
715.1
716.1
731.6
754.3
776.3
798.1
820.3
831.9
846.7
860.0
879.8
882.1
896.5
900.9
905.0
941.6
967.1
973.2
998.1
1006.5
1007.5
1009.1
1010.0
1017.7
1018.3
1033.0
1044.0
1048.9
1068.4
1070.7
1080.3
1088.3
1125.8
1172.6
1177.9
1182.8
1184.9
1193.8
1198.4
1209.1
1229.2
1259.9
1263.2
1267.9
1270.6
1275.7
1284.0
1286.4
1296.6
1303.3
1318.1
1331.5
1335.5
1340.3
1340.7
1344.6
1348.5
1353.4
1364.4
1378.5
1392.8
1422.2
1434.1
1506.8
1510.6
1521.7
1527.6
1532.9
1556.0
1558.1
1596.1
1602.5
1618.0
1627.3
1650.5
1654.4
1692.8
1696.5
1697.8
1699.2
1707.8
1709.6
1711.4
1763.7
2319.3
2452.6
2651.7
2653.7
2668.2
2673.3
2724.7
2732.7
2736.7
2744.4
2744.8
2746.6
2749.3
2751.3
2754.5
2754.5
2763.4
2764.5
2766.3
2767.1
2769.6
2779.7
       
[FR-COORD]
C -2.7076 -3.01317 -0.871353
C -0.0719986 -3.01317 -0.871353
C 1.22832 -0.700521 -0.871353
N -0.0287238 1.51839 -0.88836
C -2.57192 1.5405 -0.882502
C -4.02606 -0.695608 -0.869463
N -3.63848 4.03135 -0.832991
C -6.69284 -0.602823 -0.890061
N -8.87926 -0.5021 -0.905935
C -4.07274 -5.41992 -0.876266
C -3.65038 -7.14959 -2.83969
C -4.92841 -9.43124 -2.88334
C -6.63539 -9.98134 -0.921241
C -7.06247 -8.28985 1.05692
C -5.77047 -5.99894 1.05768
O -7.74788 -12.2734 -1.19053
C 3.99091 -0.466006 -0.777622
C 5.38062 -1.89426 0.954501
C 7.97351 -1.52633 1.16237
C 9.19182 0.257003 -0.362072
C 7.8006 1.6571 -2.11517
C 5.20393 1.30769 -2.31567
C 11.962 0.681057 -0.0799354
C -9.58809 -12.9762 0.636838
C -2.30584 6.11459 -0.966973
C 0.354702 6.26444 -1.69093
C 2.44455 6.87615 0.127179
C 2.69796 5.91673 2.57211
C 0.794819 4.41327 3.84729
C 4.38549 8.37564 -0.863605
C 6.5564 8.86924 0.534981
C 6.83306 7.84387 2.94627
C 4.91008 6.36989 3.95992
O 1.16067 2.87597 5.69034
O 0.885904 6.22891 -3.93252
O -1.61798 4.36772 3.5302
H 0.974721 -4.78498 -0.865306
H -5.52291 4.1368 -0.429157
H -2.32153 -6.68094 -4.34788
H -4.64589 -10.7934 -4.39607
H -8.3781 -8.71882 2.56908
H -6.09021 -4.65213 2.58722
H 4.4299 -3.25959 2.16941
H 9.055 -2.61557 2.52845
H 8.73658 3.04076 -3.31307
H 4.09938 2.44323 -3.64925
H 13.0083 -1.1036 0.105636
H 12.365 1.80658 1.62327
H 12.7865 1.69924 -1.68998
H -10.197 -14.8379 -0.0532903
H -11.1766 -11.6505 0.635515
H -8.73715 -13.1444 2.51371
H 4.19614 9.12757 -2.78187
H 8.05099 10.0373 -0.26494
H 8.54723 8.18894 4.02871
H 5.1153 5.54257 5.8436
H -1.44224 2.70155 5.50364

[FR-NORM-COORD]
Vibration 1
-0.000188973 0.000566918 0
0.000377945 -0.000188973 0.000188973
-0.000944863 0 -0.000377945
0.00113384 -0.000566918 -0.000188973
-0.00075589 0.00226767 0.00151178
0.000188973 -0.00075589 -0.000188973
-0.000944863 -0.00132281 -0.00264562
0 0 0.000188973
0 0 0
0 -0.000188973 0
0 0 0
0 0 0
0 0.000188973 0
0 -0.000188973 0
0 0 0
0 -0.000188973 0
0.000188973 0 0.000188973
0 0.000188973 0
0 0 0.000188973
0 0 0
0 0 0.000188973
0 -0.000188973 0
0 0 0
0 0 0
0.000377945 0.000188973 0.0020787
-0.00113384 -0.00075589 0.000188973
0.000566918 -0.000377945 0.00075589
0.00491329 -0.00396842 0.00377945
-0.0867384 0.0487549 -0.068786
0.000188973 0.000188973 0.000377945
0 0 -0.000188973
0 -0.000188973 0.000377945
0.000377945 -0.000566918 0.00075589
-0.0559359 -0.034771 0.0326923
0.000566918 0.000188973 0
0.0453534 0.0410071 -0.0419519
-0.000566918 0.000566918 -0.000944863
0.00302356 0 0.0132281
0 0.000188973 0
-0.000188973 0.000188973 0
-0.000188973 0.000188973 -0.000377945
-0.000566918 0.00075589 -0.000566918
0.000566918 -0.00132281 -0.0020787
0.000377945 -0.000377945 -0.00113384
0.000188973 0 -0.000188973
-0.00075589 0.000188973 -0.000188973
0 0 -0.000188973
0.000188973 0 -0.000377945
0 0 -0.000188973
0 0 0
0 0.000188973 0
0 0 -0.000188973
-0.000944863 0 -0.000188973
0.000188973 0 0.000188973
0 0.000566918 -0.000188973
0.00321253 0.00510226 -0.00132281
1.13705 -0.613972 0.880234
Vibration 2
-0.00283459 -0.00736993 0.0124722
-0.00283459 -0.00774788 0.013606
-0.00245664 -0.00793685 0.0213539
-0.00188973 -0.0075589 0.0272121
-0.00188973 -0.00736993 0.0262672
-0.00245664 -0.00699199 0.020787
-0.00245664 -0.00736993 0.027401
-0.00245664 -0.00642507 0.0222988
-0.00245664 -0.00604712 0.0241885
-0.00359048 -0.00680301 0
-0.00434637 0.00434637 -0.0100155
-0.0062361 0.00566918 -0.0239995
-0.00736993 -0.00434637 -0.027779
-0.0062361 -0.0160627 -0.0177634
-0.00434637 -0.0170075 -0.00377945
-0.00982658 -0.00151178 -0.0423299
-0.00245664 -0.00925966 0.0221098
-0.00340151 -0.0124722 0.0202201
-0.00302356 -0.0143619 0.020598
-0.0020787 -0.0130391 0.0230547
-0.00132281 -0.0096376 0.0251334
-0.00132281 -0.00774788 0.0245664
-0.00188973 -0.0145509 0.0238105
-0.0122832 -0.0102045 -0.047999
-0.00453534 -0.00736993 0.0128501
-0.00907068 -0.0075589 -0.00359048
-0.00188973 0.0107714 -0.0185193
0.0153068 0.0232436 -0.0154958
0.0285349 0.0196532 0.000377945
-0.0145509 0.0154958 -0.0359048
-0.0102045 0.0336371 -0.0487549
0.00699199 0.0466762 -0.0451645
0.0198421 0.0410071 -0.0287238
0.0455424 0.0253223 0.00170075
-0.020787 -0.0224877 -0.00604712
0.0266451 0.0117163 0.0162516
-0.00321253 -0.00793685 0.00774788
-0.000188973 -0.00736993 0.0379835
-0.00340151 0.0120942 -0.00680301
-0.00699199 0.0143619 -0.0319364
-0.00680301 -0.0239995 -0.020409
-0.00359048 -0.0258892 0.0041574
-0.0041574 -0.013606 0.0181414
-0.00377945 -0.0168186 0.0192752
-0.000377945 -0.00831479 0.0272121
-0.00075589 -0.00566918 0.0258892
-0.00377945 -0.013984 0.0379835
-0.00321253 -0.00264562 0.0162516
0.00113384 -0.0268341 0.0175745
-0.0149288 -0.00472431 -0.0604712
-0.0100155 -0.0075589 -0.0406291
-0.013795 -0.0236216 -0.048566
-0.0279679 0.00510226 -0.0385504
-0.0202201 0.0376055 -0.0616051
0.0103935 0.0612271 -0.055369
0.0336371 0.0506447 -0.0260782
0.0447865 0.0164406 0.0187083
Vibration 3
0.00188973 -0.00264562 -0.0062361
0.00170075 -0.00510226 -0.00793685
0.00453534 -0.0062361 -0.00888171
0.0062361 -0.00491329 -0.0100155
0.00642507 -0.00302356 -0.0103935
0.0041574 -0.00151178 -0.00831479
0.00661404 -0.00245664 -0.013606
0.0041574 0.000944863 -0.00812582
0.00434637 0.00302356 -0.00850377
-0.000944863 -0.00113384 -0.000377945
-0.00529123 -0.00604712 0.00302356
-0.00888171 -0.0041574 0.00925966
-0.00774788 0.00245664 0.0120942
-0.00321253 0.00736993 0.00888171
0.000188973 0.00548021 0.00264562
-0.0117163 0.00377945 0.0181414
0.00453534 -0.0105825 -0.00774788
0.00529123 -0.0391173 -0.0317474
0.00642507 -0.047999 -0.0309915
0.00736993 -0.0272121 -0.00566918
0.00661404 0.00340151 0.0188973
0.00585815 0.0107714 0.0173855
0.00850377 -0.0355268 -0.00529123
-0.0103935 0.0103935 0.0219208
0.00585815 -0.00302356 -0.013795
0.00736993 0.00170075 -0.00340151
-0.00736993 0.0198421 0.00718096
-0.00529123 0.0122832 0.00396842
0.00982658 -0.0192752 -0.0105825
-0.0236216 0.0502667 0.0217318
-0.0372276 0.0754001 0.034393
-0.034204 0.0693529 0.0313695
-0.0177634 0.0370386 0.0158737
0.0251334 -0.0317474 -0.0241885
0.020787 -0.00359048 0
0.0100155 -0.0398732 -0.0103935
-0.000188973 -0.0062361 -0.00831479
0.00585815 -0.00245664 -0.0170075
-0.0062361 -0.0113384 0.000566918
-0.0122832 -0.00793685 0.0119053
-0.00226767 0.0126612 0.0113384
0.00377945 0.00925966 0.000188973
0.00510226 -0.0557469 -0.0504557
0.00661404 -0.0714316 -0.0496998
0.00718096 0.020598 0.0393063
0.0062361 0.0325033 0.0351489
0.000944863 -0.0351489 0.0370386
0.00699199 -0.000188973 -0.0281569
0.0179524 -0.0735103 -0.0245664
-0.013984 0.00982658 0.0268341
-0.00850377 0.0126612 0.020976
-0.00831479 0.0132281 0.0213539
-0.0247554 0.0548021 0.0238105
-0.0500777 0.0999665 0.0462983
-0.0444086 0.089573 0.041196
-0.0145509 0.0313695 0.0130391
0.0270231 -0.0559359 -0.0255113
Vibration 4
0.000566918 -0.00151178 -0.00925966
0.000377945 -0.00283459 -0.0147399
0.000377945 -0.00283459 -0.0145509
0.000377945 -0.00283459 -0.0153068
0.000377945 -0.00188973 -0.00982658
0.000377945 -0.00170075 -0.00491329
0.0020787 -0.00113384 -0.00642507
0.000377945 -0.00302356 0.0075589
0.000188973 -0.00491329 0.0187083
-0.00264562 0 -0.00566918
-0.0393063 0.0151178 -0.0264562
-0.0461093 0.0187083 -0.0232436
-0.0145509 0.00736993 0.000944863
0.0232436 -0.00774788 0.0221098
0.0285349 -0.0107714 0.0185193
-0.0258892 0.0128501 0.000566918
-0.000188973 0.00188973 -0.00548021
-0.00680301 0.0192752 0.0141729
-0.0107714 0.0351489 0.0338261
-0.00793685 0.0330702 0.0334482
-0.000188973 0.0117163 0.0103935
0.00321253 -0.00359048 -0.00888171
-0.013606 0.0529123 0.0585815
0.00604712 0.00132281 0.0281569
0.00377945 -0.00226767 -0.00529123
0.00359048 -0.00377945 -0.0062361
0.00359048 -0.00566918 -0.00548021
0.0105825 -0.0185193 -0.0113384
0.0181414 -0.0334482 -0.0175745
-0.00340151 0.00736993 0.000377945
-0.00359048 0.00793685 0.000377945
0.00359048 -0.00472431 -0.00585815
0.0107714 -0.0181414 -0.0117163
0.0281569 -0.0496998 -0.0328812
0.00377945 -0.00132281 -0.0062361
0.0168186 -0.0338261 -0.0075589
0 -0.00302356 -0.0177634
0.00245664 -0.000377945 -0.00491329
-0.0629279 0.0239995 -0.0444086
-0.0752111 0.0304246 -0.0391173
0.0478101 -0.0168186 0.0408181
0.0570697 -0.0215429 0.0338261
-0.0096376 0.0219208 0.0149288
-0.0162516 0.0502667 0.0502667
0.00226767 0.00812582 0.00831479
0.00812582 -0.0183303 -0.0253223
-0.000188973 0.0580146 0.0325033
-0.0338261 0.0249444 0.0818251
-0.0117163 0.089573 0.08277
-0.0117163 0.00925966 0.0226767
0.00944863 0.00548021 0.0693529
0.0400622 -0.0177634 0.0109604
-0.00869274 0.0171965 0.00472431
-0.00925966 0.0183303 0.00510226
0.00359048 -0.00434637 -0.0062361
0.0166296 -0.0285349 -0.0170075
0.02759 -0.0512116 -0.0232436
Vibration 5
-0.00529123 0.00718096 -0.0102045
-0.00585815 0.00453534 -0.0120942
-0.00359048 0.00359048 -0.00453534
-0.00170075 0.00472431 -0.00151178
-0.00188973 0.00661404 -0.00340151
-0.00377945 0.00793685 -0.00396842
-0.000566918 0.00718096 -0.00491329
-0.00377945 0.00736993 0.0041574
-0.00377945 0.00566918 0.0120942
-0.00585815 0.00736993 -0.0122832
-0.0396842 0.0285349 -0.0379835
-0.0336371 0.0249444 -0.034771
0.00831479 0.000188973 -0.00510226
0.0394953 -0.0188973 0.0177634
0.0313695 -0.0141729 0.013795
0.013984 -0.00283459 -0.00283459
-0.00340151 -0.00321253 0.00075589
-0.0096376 -0.0215429 -0.00925966
-0.00793685 -0.0349599 -0.00680301
0 -0.0298577 0.00566918
0.00585815 -0.00982658 0.0170075
0.00434637 0.00340151 0.0143619
0.0020787 -0.0445975 0.00699199
0.0646286 -0.0340151 0.0360938
0.000188973 0.00680301 -0.00453534
0.00075589 0.00585815 -0.00245664
0.000377945 0.00340151 -0.00132281
-0.00699199 0.0103935 0.00226767
-0.0145509 0.0219208 0.00434637
0.00774788 -0.00699199 -0.00302356
0.0075589 -0.0109604 -0.00132281
-0.000188973 -0.0041574 0.00245664
-0.00736993 0.00661404 0.0041574
-0.0243775 0.0313695 0.0141729
0.00188973 0.0062361 -0.00226767
-0.013606 0.0251334 -0.0041574
-0.00774788 0.00340151 -0.0188973
-0.00075589 0.00812582 -0.00585815
-0.0704868 0.0472432 -0.0591484
-0.0597153 0.0406291 -0.0536682
0.0697309 -0.0370386 0.0389284
0.055369 -0.0281569 0.0309915
-0.0154958 -0.0262672 -0.0192752
-0.0128501 -0.0500777 -0.0149288
0.0122832 -0.00491329 0.02759
0.00925966 0.0177634 0.0224877
-0.0096376 -0.0474321 0.0440306
0.00359048 -0.0151178 -0.0128501
0.013984 -0.0801244 -0.0096376
0.062172 -0.0325033 0.0340151
0.0542351 -0.0464873 0.0871164
0.111872 -0.0444086 0.013795
0.0132281 -0.0120942 -0.00548021
0.0130391 -0.0190862 -0.00283459
-0.000566918 -0.00718096 0.00396842
-0.013606 0.0120942 0.00736993
-0.0241885 0.0359048 0.00585815
Vibration 6
-0.020409 0.0154958 -0.0124722
-0.0200311 0.0115273 -0.0102045
-0.0158737 0.00888171 -0.00396842
-0.0119053 0.0111494 0.00075589
-0.0119053 0.0153068 0.000188973
-0.0162516 0.0177634 -0.00907068
-0.00661404 0.0173855 0.0124722
-0.0158737 0.0243775 -0.0156847
-0.0154958 0.0308025 -0.0221098
-0.0173855 0.013795 -0.0132281
0.0147399 -0.00170075 0.00699199
0.034582 -0.0128501 0.0170075
0.020976 -0.00850377 0.00642507
-0.0177634 0.0103935 -0.0183303
-0.0366607 0.0211649 -0.0279679
0.0502667 -0.0245664 0.0228657
-0.0156847 0.00188973 0.00226767
-0.0245664 -0.00453534 0.00434637
-0.0241885 -0.0120942 0.0120942
-0.0151178 -0.013606 0.0179524
-0.0062361 -0.00736993 0.0156847
-0.00661404 0.000377945 0.00793685
-0.0147399 -0.0211649 0.0268341
0.0502667 -0.0300466 0.020598
-0.00283459 0.0151178 0.0160627
-0.00548021 0.0130391 0.0062361
0.00321253 0.00434637 -0.00075589
0.0158737 -0.0103935 -0.00793685
0.0219208 -0.0179524 -0.00812582
-0.0020787 0.0105825 -0.00188973
0.00491329 0.00226767 -0.0100155
0.0177634 -0.0128501 -0.0177634
0.0230547 -0.0190862 -0.0168186
0.0315584 -0.0362827 -0.0253223
-0.0145509 0.0187083 0.00396842
0.0192752 -0.00831479 0.0096376
-0.0228657 0.0100155 -0.0117163
-0.00548021 0.0196532 0.0173855
0.0257003 -0.00566918 0.0153068
0.0616051 -0.0258892 0.0336371
-0.0321253 0.0162516 -0.0291018
-0.0651955 0.034393 -0.0455424
-0.0319364 -0.00321253 0
-0.0313695 -0.0168186 0.013984
0.00132281 -0.00850377 0.020409
0.000188973 0.00529123 0.00661404
-0.0211649 -0.0230547 0.0432747
-0.0185193 -0.0107714 0.020976
-0.00472431 -0.034582 0.0234326
0.0844708 -0.0489439 0.041385
0.0291018 -0.055369 -0.00718096
0.0406291 0.00812582 0.0283459
-0.0120942 0.0219208 0.00359048
0.00075589 0.00736993 -0.0105825
0.0234326 -0.0194642 -0.0247554
0.0330702 -0.0309915 -0.0232436
0.0298577 -0.02759 -0.0075589
Vibration 7
-0.00396842 0.00793685 0.0198421
-0.00377945 0.0062361 0.0192752
-0.00226767 0.00510226 0.0107714
-0.00075589 0.00566918 0
-0.000944863 0.0075589 0.00302356
-0.00245664 0.00869274 0.0187083
0.00245664 0.00944863 -0.0134171
-0.00245664 0.0109604 0.0364717
-0.00245664 0.0134171 0.0548021
-0.00245664 0.00699199 0.0134171
0.00566918 0.0143619 0.00831479
0.0107714 0.0119053 -0.00245664
0.00774788 0.00170075 -0.00793685
-0.000944863 -0.00566918 -0.00359048
-0.00585815 -0.00264562 0.00718096
0.0143619 -0.000377945 -0.0185193
-0.0020787 0.0020787 0.00831479
-0.00585815 0.0255113 0.0304246
-0.0041574 0.0194642 0.0219208
0.00075589 -0.0107714 -0.00907068
0.00340151 -0.0313695 -0.0281569
0.00188973 -0.0243775 -0.0192752
0.00264562 -0.0145509 -0.0224877
0.0128501 -0.0122832 -0.0247554
0.00661404 0.00604712 -0.0243775
0.0100155 -0.00396842 -0.0143619
0.00132281 -0.00132281 -0.00510226
-0.00699199 -0.00434637 -0.00548021
-0.00907068 -0.0107714 -0.0158737
0.00226767 0.0041574 0.00510226
-0.00529123 0.0075589 0.0156847
-0.0134171 0.00472431 0.0154958
-0.013984 -0.00188973 0.00472431
-0.0100155 -0.0338261 -0.0349599
0.0217318 -0.013795 -0.0113384
-0.0105825 0.00529123 -0.00699199
-0.00472431 0.00566918 0.0241885
0.0020787 0.0149288 -0.0170075
0.00812582 0.0222988 0.0130391
0.0171965 0.0175745 -0.0062361
-0.00359048 -0.0134171 -0.00831479
-0.0124722 -0.00831479 0.0109604
-0.00982658 0.0489439 0.0536682
-0.00736993 0.0377945 0.0389284
0.00736993 -0.0529123 -0.0498888
0.00377945 -0.0398732 -0.0338261
-0.0126612 -0.00585815 0.144186
-0.00321253 0.132281 -0.117919
0.0245664 -0.163083 -0.105447
0.0198421 -0.0117163 -0.0325033
0.00888171 -0.0170075 -0.0234326
0.00944863 -0.0160627 -0.0236216
0.00925966 0.00566918 0.00510226
-0.00434637 0.0120942 0.0239995
-0.0192752 0.00774788 0.0236216
-0.0200311 -0.00491329 0.00396842
-0.0113384 -0.0177634 -0.0262672
Vibration 8
0.000944863 -0.00510226 -0.0119053
0.000944863 -0.00472431 -0.00302356
-0.000377945 -0.00396842 0.00264562
-0.00075589 -0.00434637 0.00907068
-0.000944863 -0.00510226 0.00151178
0 -0.00566918 -0.0173855
-0.00170075 -0.00585815 0.0141729
0.000188973 -0.00793685 -0.0468652
0.000377945 -0.0107714 -0.0765339
-0.00132281 -0.00396842 -0.00982658
-0.0130391 -0.00453534 -0.0113384
-0.0173855 -0.00245664 -0.00510226
-0.00925966 0.000566918 0.00283459
0.00226767 0.00188973 0.00434637
0.00604712 -0.000377945 -0.00226767
-0.0145509 0.00245664 0.00888171
-0.000377945 -0.00113384 0.00151178
0.00132281 0.0126612 0.0105825
0.00151178 0.0170075 0.00718096
-0.00113384 0.00680301 -0.00585815
-0.00377945 -0.00585815 -0.0147399
-0.00321253 -0.00944863 -0.0109604
-0.00302356 0.0224877 -0.0107714
-0.00283459 0.00396842 0.0211649
-0.00226767 -0.00472431 0.0230547
-0.00377945 -0.00302356 0.0162516
0.00170075 -0.00188973 0.00944863
0.00869274 0.00188973 0.0100155
0.0130391 0.0020787 0.0168186
-0.00132281 -0.00283459 0.00170075
0.0020787 0.000377945 -0.00491329
0.00850377 0.00510226 -0.00359048
0.0119053 0.00566918 0.00377945
0.0170075 0.0183303 0.0296687
-0.0111494 -0.0020787 0.0145509
0.0141729 -0.013795 0.0109604
0.00151178 -0.00434637 -0.00113384
-0.00151178 -0.00850377 0.0156847
-0.0187083 -0.00718096 -0.0171965
-0.0268341 -0.00321253 -0.0062361
0.00850377 0.00434637 0.0103935
0.0147399 0.00113384 -0.00170075
0.00359048 0.0196532 0.0202201
0.0020787 0.02759 0.0153068
-0.00491329 -0.0128501 -0.0236216
-0.00548021 -0.0190862 -0.0170075
-0.0151178 0.0474321 0.287427
-0.0351489 0.282703 -0.174611
0.0368497 -0.229413 -0.150044
-0.00850377 0.0041574 0.0255113
-0.0020787 0.00491329 0.0309915
0.00925966 0.00396842 0.0156847
-0.00680301 -0.00604712 0.000944863
-0.000377945 -0.000377945 -0.0107714
0.0107714 0.00850377 -0.00812582
0.0170075 0.00944863 0.00491329
0.0183303 0.00188973 0.0238105
Vibration 9
0.00661404 -0.00226767 -0.00491329
0.00661404 0.000944863 -0.0183303
0.00472431 0.0020787 -0.0179524
0.00245664 0.00113384 -0.0154958
0.00245664 -0.00170075 -0.00548021
0.00453534 -0.00321253 0.00548021
-0.00170075 -0.00359048 -0.00264562
0.00434637 -0.00453534 0.0313695
0.0041574 -0.00491329 0.0563138
0.00850377 -0.00321253 0.000188973
0.0151178 -0.0103935 0.00793685
0.0124722 -0.00888171 0.00944863
0.00226767 -0.000188973 0.00302356
-0.00188973 0.00548021 -0.00264562
0.00170075 0.00321253 -0.00377945
-0.00245664 0.0020787 0.00377945
0.00434637 0.00302356 -0.0119053
0.00283459 -0.027779 -0.0359048
0.00151178 -0.0268341 -0.020787
0.00245664 0.00548021 0.0183303
0.00491329 0.034582 0.0391173
0.00661404 0.0326923 0.0236216
-0.00151178 0.0170075 0.0389284
-0.0234326 0.0179524 -0.0111494
-0.00661404 -0.000377945 -0.00132281
-0.00869274 0.00925966 -0.00510226
-0.00396842 -0.00151178 -0.00661404
-0.00377945 -0.00680301 -0.00850377
-0.00831479 0.000377945 -0.00699199
0.00075589 -0.00812582 -0.00699199
0.00585815 -0.020787 -0.0103935
0.00604712 -0.0268341 -0.0130391
0.000944863 -0.0196532 -0.0120942
-0.0126612 -0.00113384 -0.00736993
-0.0141729 0.0243775 -0.00680301
-0.00869274 0.00907068 -0.00529123
0.00812582 0.00188973 -0.0264562
-0.00132281 -0.00736993 0.000377945
0.0217318 -0.0168186 0.0117163
0.0173855 -0.013984 0.0151178
-0.00812582 0.0113384 -0.0062361
-0.00151178 0.00699199 -0.0075589
0.00245664 -0.0532903 -0.0648176
-0.00113384 -0.0515895 -0.0381725
0.00661404 0.0587705 0.0684081
0.00888171 0.0536682 0.0394953
-0.00604712 0.0326923 0.209949
-0.0357158 0.158926 -0.0462983
0.0317474 -0.118108 -0.0296687
-0.0279679 0.0196532 -0.0113384
-0.0156847 0.0272121 -0.0291018
-0.041196 0.0183303 -0.00302356
0.000377945 -0.00283459 -0.00510226
0.00944863 -0.0257003 -0.0109604
0.00982658 -0.0370386 -0.0158737
0.00075589 -0.0238105 -0.013984
-0.0134171 0.00850377 -0.00529123
Vibration 10
-0.0156847 -0.00170075 -0.0158737
-0.0149288 -0.00907068 -0.0306136
-0.00831479 -0.0134171 -0.0306136
-0.00170075 -0.00982658 -0.0249444
-0.00113384 -0.00170075 -0.0115273
-0.00831479 0.00245664 -0.000566918
0.00944863 0.00283459 -0.0119053
-0.00812582 0.0143619 0.0309915
-0.00793685 0.0264562 0.0616051
-0.0183303 -0.000188973 -0.0149288
-0.00283459 -0.00982658 -0.00359048
0.00566918 -0.0145509 0.0020787
-0.00264562 -0.0102045 -0.00396842
-0.0230547 0.00170075 -0.0185193
-0.0304246 0.00604712 -0.0238105
0.0119053 -0.0183303 0.00585815
-0.00812582 -0.0143619 -0.0298577
-0.0109604 -0.00434637 -0.0194642
-0.0143619 0.0113384 -0.00377945
-0.0153068 0.0160627 0.00113384
-0.0111494 -0.000188973 -0.0153068
-0.00774788 -0.0153068 -0.0308025
-0.0215429 0.0402512 0.0251334
0.0143619 -0.0213539 0.00718096
0.0215429 -0.00453534 -0.00793685
0.0251334 -0.0211649 0.00075589
0.0179524 -0.0103935 0.00604712
0.00925966 0.00944863 0.0147399
0.0115273 0.0102045 0.0185193
0.0188973 -0.0130391 0.00321253
0.0102045 0.0062361 0.00982658
0.000188973 0.0294797 0.020976
0.000188973 0.0311805 0.0228657
0.00793685 0.062361 0.0627389
0.0351489 -0.0362827 0.00340151
0.0177634 -0.0427078 -0.0221098
-0.0198421 -0.0120942 -0.0400622
0.00982658 0.0119053 -0.013984
0.00377945 -0.013795 0.000944863
0.0194642 -0.0222988 0.0115273
-0.0325033 0.00718096 -0.0251334
-0.0451645 0.013606 -0.0334482
-0.0107714 -0.00736993 -0.0228657
-0.0168186 0.020976 0.00585815
-0.0109604 0.000377945 -0.0143619
-0.00566918 -0.0257003 -0.041385
-0.00774788 0.0496998 0.0383614
-0.0470542 0.0472432 0.0266451
-0.0154958 0.0442196 0.0306136
0.0336371 -0.0326923 0.020409
0.00188973 -0.0362827 -0.00736993
0.0111494 0.00151178 0.0105825
0.0264562 -0.0296687 -0.0041574
0.0107714 0.00377945 0.00718096
-0.0075589 0.0466762 0.0279679
-0.00736993 0.0495108 0.0319364
0.013984 0.00907068 0.0213539
Vibration 11
0.0113384 -0.00188973 -0.0190862
0.0111494 0.00434637 -0.0287238
0.00529123 0.0075589 -0.027401
0.00321253 0.00585815 -0.0289128
0.00264562 -0.000566918 -0.0166296
0.0075589 -0.0041574 -0.0102045
-0.00812582 -0.00566918 -0.000566918
0.00718096 -0.0103935 0.0119053
0.00680301 -0.0162516 0.0326923
0.0149288 -0.00377945 -0.0100155
0.0120942 -0.0107714 -0.00434637
0.00831479 -0.00888171 0.00340151
0.00680301 0.00075589 0.00472431
0.013606 0.00566918 0.0020787
0.0179524 0.00283459 -0.00529123
-0.00170075 0.0041574 0.0103935
0.00548021 0.00340151 -0.0128501
-0.0175745 0.0253223 0.0243775
-0.0166296 0.0096376 0.0360938
0.00736993 -0.0292908 0.0096376
0.0291018 -0.0474321 -0.0221098
0.0270231 -0.0296687 -0.0323143
0.0107714 -0.054991 0.0156847
-0.0213539 0.0262672 -0.00075589
-0.0194642 0.00226767 0.0171965
-0.0238105 0.0281569 0.0100155
-0.0171965 0.0151178 0.00680301
-0.00736993 0.00321253 0.00132281
-0.00075589 -0.000566918 0.0062361
-0.020409 0.0190862 0.0062361
-0.0132281 0.00982658 -0.00188973
-0.00264562 -0.00283459 -0.00869274
0 -0.00529123 -0.00699199
0.0041574 0.0298577 0.0308025
-0.0357158 0.061794 0.00642507
0.00226767 -0.0372276 -0.0126612
0.0156847 0.00699199 -0.0330702
-0.00831479 -0.0175745 0.00264562
0.0119053 -0.0175745 -0.00661404
0.00548021 -0.013984 0.00736993
0.0153068 0.0115273 0.00510226
0.0230547 0.00661404 -0.00736993
-0.0366607 0.0544241 0.0423299
-0.034393 0.0272121 0.0640617
0.0476211 -0.0752111 -0.0396842
0.0428968 -0.0419519 -0.05518
-0.0062361 -0.0668963 -0.000188973
0.020409 -0.0746442 0.0262672
0.0215429 -0.047999 0.0258892
-0.0338261 0.0300466 0
-0.00907068 0.0408181 -0.0151178
-0.0357158 0.0232436 0.00548021
-0.0283459 0.0292908 0.0107714
-0.0158737 0.0124722 -0.00321253
0.00283459 -0.0107714 -0.0149288
0.00774788 -0.013606 -0.0113384
0.00774788 -0.00661404 0.0120942
Vibration 12
0.00434637 -0.0156847 -0.0349599
0.00472431 -0.0185193 -0.0491329
0.00736993 -0.0200311 -0.0200311
0.0113384 -0.0170075 0.0145509
0.0117163 -0.0141729 0.0124722
0.00907068 -0.0126612 -0.00661404
0.013795 -0.013984 0.0311805
0.00907068 -0.00604712 0.00699199
0.00925966 0.00113384 0.020976
-0.00188973 -0.0120942 -0.0330702
-0.00340151 -0.027779 -0.0192752
-0.00850377 -0.0258892 -0.00377945
-0.0124722 -0.00812582 -0.00226767
-0.0145509 0.0096376 -0.0177634
-0.00907068 0.00604712 -0.0330702
-0.0149288 -0.00925966 0.0173855
0.00774788 -0.0217318 -0.0200311
0.00340151 -0.0041574 -0.00226767
0.000944863 0.00718096 0.00850377
0.00226767 -0.000188973 0.00075589
0.0075589 -0.0236216 -0.0219208
0.00944863 -0.0334482 -0.0317474
-0.00226767 0.0179524 0.0187083
-0.0020787 0.00075589 0.034393
0.00869274 -0.0111494 0.0247554
0.00359048 0.00453534 0.0113384
0.00566918 0.0124722 0.00548021
0.000188973 0.0228657 0.0100155
-0.0096376 0.0306136 0.00453534
0.00869274 0.00604712 0.00283459
0.00396842 0.0132281 0.00774788
-0.00321253 0.0253223 0.013795
-0.00491329 0.027779 0.0149288
-0.0171965 -0.0355268 -0.0498888
-0.00604712 0.0102045 0.00907068
-0.0170075 0.109982 0.0493218
0.00340151 -0.0192752 -0.0763449
0.0156847 -0.0151178 0.0425188
-0.000188973 -0.0427078 -0.020787
-0.00831479 -0.0379835 0.00736993
-0.0200311 0.0257003 -0.0179524
-0.00944863 0.0179524 -0.0434637
0.00132281 0.00302356 0.0041574
-0.00245664 0.0234326 0.0241885
0.00925966 -0.0321253 -0.0304246
0.0120942 -0.048188 -0.0459203
0.00869274 0.0241885 0.0170075
-0.0202201 0.0130391 0.0262672
0.000377945 0.0309915 0.0285349
0.00245664 -0.00869274 0.0561249
-0.00774788 -0.00604712 0.0291018
0.00812582 0.0230547 0.0317474
0.013984 -0.00377945 -0.00151178
0.0062361 0.0096376 0.00699199
-0.00699199 0.0321253 0.0175745
-0.00982658 0.034393 0.0179524
-0.0253223 0.0440306 -0.00377945
Vibration 13
-0.00340151 -0.0134171 0.0289128
-0.00283459 -0.0213539 0.0396842
0.00453534 -0.0257003 0.0132281
0.0120942 -0.0202201 -0.0122832
0.0132281 -0.0124722 -0.00831479
0.00566918 -0.00869274 0.00793685
0.0147399 -0.0111494 -0.0171965
0.00604712 0.00075589 0.000944863
0.00642507 0.0096376 -0.00529123
-0.0124722 -0.00888171 0.0224877
-0.00548021 -0.0041574 0.0190862
-0.0117163 0 0.0020787
-0.0245664 -0.00377945 -0.00982658
-0.0353379 -0.0075589 -0.00907068
-0.0296687 -0.0100155 0.00680301
-0.0268341 -0.000377945 -0.027779
0.00510226 -0.0264562 0.0041574
0.0164406 -0.0196532 0.000188973
0.0149288 -0.0041574 -0.00377945
0.00188973 0.00510226 -0.00340151
-0.00812582 -0.00699199 -0.00510226
-0.00585815 -0.0230547 -0.00151178
-0.00226767 0.0308025 -0.00075589
0.02759 -0.0472432 0.00869274
0.00736993 -0.00812582 -0.00718096
0.00151178 0.0383614 -0.00264562
0.000566918 0.02759 0.00283459
0.00604712 0.00396842 -0.00680301
0.000944863 0.00869274 -0.0096376
-0.00170075 0.0391173 0.0154958
0.00453534 0.0190862 0.0130391
0.0143619 -0.0143619 -0.00226767
0.013984 -0.0200311 -0.0115273
-0.00925966 0.0213539 0.00302356
-0.00113384 0.0874943 -0.00453534
0.00302356 0.00396842 -0.0243775
-0.00888171 -0.0247554 0.0625499
0.0122832 -0.0126612 -0.0243775
0.00642507 -0.00321253 0.0298577
-0.00566918 0.00491329 -0.00113384
-0.0491329 -0.0075589 -0.020976
-0.0391173 -0.0132281 0.0075589
0.0268341 -0.0255113 0.00151178
0.0234326 0.00188973 -0.00585815
-0.0179524 -0.00245664 -0.00774788
-0.0134171 -0.0311805 -0.00188973
0.0145509 0.0410071 0.00113384
-0.0151178 0.0353379 -0.000566918
-0.0100155 0.0383614 0
0.0444086 -0.0523454 0.00774788
0.00453534 -0.0746442 0.0544241
0.0719986 -0.0470542 -0.0115273
-0.00774788 0.0633058 0.0253223
0.0020787 0.0285349 0.0222988
0.020976 -0.0340151 -0.00642507
0.0190862 -0.0423299 -0.0217318
-0.00793685 0.0177634 -0.0120942
Vibration 14
0.0175745 -0.00075589 -0.00774788
0.0175745 0.00642507 -0.0062361
0.0115273 0.0103935 0.00736993
0.00491329 0.00680301 0.0124722
0.00453534 -0.00075589 0.00793685
0.0113384 -0.00396842 0.00245664
-0.00680301 -0.00566918 0.00604712
0.0109604 -0.00888171 0.0115273
0.0107714 -0.0111494 0.0226767
0.0117163 0.00340151 -0.013795
0.0215429 -0.0103935 0.000944863
0.000377945 0.00113384 -0.00359048
-0.027779 0.0255113 -0.0213539
-0.0406291 0.041196 -0.0374166
-0.020409 0.0289128 -0.0336371
-0.0495108 0.0370386 -0.0251334
0.0113384 0.0162516 0.013795
0.0115273 0.0154958 0.0130391
0.0132281 0.00831479 0.00718096
0.0154958 0.00226767 0.0020787
0.013984 0.0103935 0.0096376
0.0122832 0.0173855 0.0156847
0.0200311 -0.0153068 -0.0143619
0.0538572 -0.0126612 0.0600933
-0.0132281 -0.00170075 -0.00264562
-0.0120942 -0.0141729 -0.00510226
-0.0128501 -0.0130391 -0.00529123
-0.0134171 -0.00869274 -0.00359048
-0.00793685 -0.0120942 0.00151178
-0.0132281 -0.0154958 -0.00925966
-0.0130391 -0.0122832 -0.0109604
-0.013795 -0.00585815 -0.00812582
-0.0134171 -0.00377945 -0.00472431
0.00132281 -0.00188973 0.00850377
-0.0115273 -0.0294797 -0.00434637
-0.00774788 -0.0279679 0.00302356
0.0224877 0.00944863 -0.013984
-0.00585815 -0.0124722 0.0109604
0.0459203 -0.0308025 0.0160627
0.00736993 -0.00925966 0.00699199
-0.0682191 0.0642507 -0.0546131
-0.0298577 0.0406291 -0.0455424
0.0107714 0.0183303 0.0154958
0.0130391 0.00566918 0.00510226
0.0143619 0.0096376 0.00925966
0.0120942 0.0219208 0.0196532
0.00907068 -0.0222988 -0.0188973
0.0379835 -0.0164406 -0.0179524
0.0171965 -0.0226767 -0.020409
0.0701088 -0.02759 0.0863605
0.0200311 -0.0531013 0.13247
0.142863 0.0075589 0.0215429
-0.0134171 -0.0202201 -0.0111494
-0.0126612 -0.0149288 -0.013984
-0.013984 -0.00283459 -0.00869274
-0.0128501 0.00113384 -0.00245664
0.00245664 -0.0177634 0.0100155
Vibration 15
-0.000188973 -0.00283459 -0.0194642
-0.000188973 -0.00151178 -0.0168186
-0.0020787 -0.000377945 0.00680301
-0.00396842 -0.00170075 0.0168186
-0.00377945 -0.00226767 0.000566918
-0.0020787 -0.00340151 -0.00812582
-0.0020787 -0.00132281 -0.0141729
-0.00226767 -0.0062361 0.00434637
-0.00245664 -0.0096376 0.020787
-0.000188973 -0.00302356 -0.0213539
-0.00510226 -0.00831479 -0.0173855
-0.0041574 -0.0096376 -0.00661404
0.00132281 -0.00472431 -0.000566918
0.00359048 0.00245664 -0.0062361
0.00321253 0.00226767 -0.0162516
0.00472431 -0.00831479 0.0149288
-0.00264562 0.00510226 0.013795
0.000188973 0.00869274 0.013795
0.000944863 0.00831479 0.00699199
-0.00170075 0.00377945 -0.000188973
-0.00642507 0.00736993 0.00642507
-0.00680301 0.00774788 0.0132281
0.00188973 -0.0062361 -0.0187083
-0.0096376 0.0117163 0.00869274
0.000944863 -0.00264562 -0.0183303
0.00869274 -0.0143619 0.00472431
-0.0075589 0.0188973 0.0122832
0.020787 -0.0260782 -0.00812582
0.00377945 0.00377945 0.000188973
-0.041385 0.0754001 0.0332592
-0.02759 0.0542351 0.0200311
0.0260782 -0.0374166 -0.0249444
0.0468652 -0.0725655 -0.0357158
-0.0302356 0.0260782 0.0253223
0.0379835 -0.0606602 0.0124722
0.00434637 0.0391173 -0.0109604
0.00132281 -0.00075589 -0.0292908
-0.00472431 0.00245664 -0.0292908
-0.00925966 -0.0124722 -0.0222988
-0.00680301 -0.0143619 -0.00283459
0.00680301 0.0075589 -0.0020787
0.0062361 0.00661404 -0.0194642
0.00226767 0.0102045 0.0171965
0.00396842 0.00944863 0.00529123
-0.00982658 0.00850377 0.00510226
-0.0102045 0.00907068 0.0164406
-0.00434637 -0.0102045 -0.0200311