[Molden Format]
[FREQ]
-1232.8
3.9
20.8
23.4
25.1
31.1
33.2
39.0
44.7
58.5
61.0
69.6
86.2
101.8
108.4
116.5
125.2
136.1
148.4
169.2
178.9
193.5
200.7
205.7
236.3
251.3
257.8
282.0
289.2
293.3
312.0
316.1
336.6
343.1
348.6
355.2
379.9
405.8
409.2
441.8
458.1
467.9
482.1
503.1
510.0
520.9
534.3
539.6
565.9
574.9
605.2
607.6
616.8
622.3
631.4
647.6
657.9
685.9
686.4
701.4
718.8
741.0
753.7
773.3
805.0
814.4
831.0
837.6
853.1
876.3
880.3
881.9
894.6
901.3
939.5
973.6
973.8
987.5
998.8
1007.6
1008.7
1008.9
1016.5
1017.5
1033.1
1038.4
1045.8
1070.4
1071.1
1081.3
1096.1
1124.8
1155.5
1176.8
1177.1
1183.3
1186.6
1191.7
1212.7
1231.5
1255.9
1261.5
1263.8
1267.7
1275.4
1283.8
1285.4
1293.6
1299.3
1315.0
1316.3
1318.5
1331.3
1336.8
1342.0
1348.8
1356.3
1359.7
1364.4
1378.1
1392.3
1426.6
1440.1
1504.6
1509.4
1525.3
1530.3
1532.1
1542.8
1554.4
1594.1
1603.8
1631.3
1688.3
1690.8
1694.4
1695.6
1697.3
1706.9
1711.8
1843.0
1857.6
1885.8
1918.0
2455.6
2651.2
2652.9
2665.0
2672.3
2682.2
2739.1
2744.3
2744.4
2746.5
2747.0
2747.6
2750.4
2752.2
2760.1
2761.9
2762.7
2765.1
2768.0
2771.2
2778.9
       
[FR-COORD]
C -2.07605 -2.98199 1.29692
C 0.560304 -2.98199 1.29692
C 1.87895 -0.677278 1.29692
N 0.623799 1.55165 1.34567
C -1.90749 1.55335 1.25534
C -3.38318 -0.657814 1.25837
N -2.94382 4.09617 1.03784
C -6.05223 -0.563705 1.17881
N -8.23769 -0.486415 1.1259
C -3.44875 -5.38062 1.29579
C -3.07194 -7.09176 -0.693907
C -4.36489 -9.36397 -0.739072
C -6.04202 -9.92541 1.24684
C -6.42469 -8.25054 3.24976
C -5.1187 -5.96851 3.25165
O -7.17151 -12.2056 0.973965
C 4.63984 -0.494352 1.16898
C 5.89217 1.49175 2.38729
C 8.49772 1.73571 2.16619
C 9.87306 0.0145509 0.708458
C 8.61866 -1.96758 -0.508336
C 6.01443 -2.22572 -0.277979
C 12.6557 0.32749 0.42481
C -8.99188 -12.9153 2.81966
C -2.94514 5.14024 -1.76293
C -0.324844 7.99203 0.0134171
C 1.93924 7.26448 -1.46019
C 1.6399 5.2763 -3.18381
C -0.82959 4.10297 -3.46538
C 4.34202 8.25149 -1.01837
C 6.41316 7.27885 -2.31416
C 6.10552 5.32166 -4.06367
C 3.71993 4.31538 -4.50341
O -1.38498 2.39428 -4.85773
O -0.857369 10.0894 0.651578
O -4.82012 6.22665 -2.33192
H 1.59191 -4.76419 1.32149
H -1.5732 5.65784 1.84683
H -1.77313 -6.61253 -2.22421
H -4.11998 -10.711 -2.27296
H -7.71783 -8.68726 4.78006
H -5.40405 -4.63588 4.79934
H 4.80992 2.86747 3.48541
H 9.46394 3.28567 3.112
H 9.68107 -3.30626 -1.65124
H 5.04897 -3.75715 -1.26064
H 13.5667 0.882313 2.20833
H 13.0926 1.81225 -0.968863
H 13.6 -1.40501 -0.219775
H -9.62173 -14.7661 2.11649
H -10.5721 -11.5802 2.8533
H -8.11675 -13.1102 4.68274
H 4.56614 9.79558 0.323899
H 8.29042 8.05212 -1.97741
H 7.73559 4.58391 -5.07051
H 3.45688 2.77733 -5.85059
H -4.73131 4.25755 1.82472

[FR-NORM-COORD]
Vibration 1
-0.000944863 0.00264562 0.0020787
0.000944863 0 0.000188973
-0.00453534 0 0.00264562
0 0.00396842 -0.00510226
-0.00491329 0.0264562 -0.00850377
0.0020787 -0.000944863 0.00302356
-0.00982658 -0.0160627 -0.0544241
0.0020787 -0.000188973 0.000377945
0.000944863 0.000377945 -0.000188973
0 -0.000188973 -0.000188973
0 0.000377945 0.000188973
-0.000188973 -0.000188973 0
0.000188973 0.00075589 0
-0.000188973 -0.000377945 -0.000188973
0.000188973 0.000188973 0
-0.000188973 -0.000566918 0
-0.000188973 0.000188973 -0.000188973
-0.000188973 -0.000377945 0
0 0 -0.000377945
-0.000377945 0 0
0.000377945 0.000377945 0
-0.000377945 0.000566918 0.000188973
0.000188973 0.000188973 -0.000188973
0 0 -0.000188973
-0.0854156 -0.119242 -0.00151178
0.0625499 -0.0268341 0.159115
-0.0156847 0.00321253 -0.00585815
-0.00359048 0.00132281 -0.000188973
0.00982658 0.00151178 -0.00718096
-0.00718096 0.00170075 -0.00283459
-0.00302356 0 0.000188973
-0.00075589 0.000188973 0
-0.000188973 0 0.000377945
-0.00170075 0.00170075 0.0020787
-0.00566918 0.020976 -0.0200311
0.0103935 0.0107714 -0.0020787
-0.00226767 0.00075589 -0.0020787
0.615484 0.922186 -0.586193
0.00170075 -0.000377945 0.0020787
-0.000188973 0.000377945 0.000944863
0 0.000377945 -0.000377945
0.000377945 0.00151178 -0.000566918
-0.00302356 -0.00188973 0.000944863
0.000188973 -0.0020787 0.00075589
0.000188973 -0.000188973 0.00132281
-0.000566918 -0.000566918 0.00188973
-0.000566918 -0.000944863 0.000377945
0.000566918 -0.00075589 0.000566918
-0.000566918 -0.000566918 0.000566918
-0.000377945 0.000377945 0.00075589
0.000377945 0.000566918 0
0.000188973 0.000566918 -0.000188973
-0.00132281 -0.00113384 0.00113384
-0.00170075 -0.0020787 0.00566918
0.00075589 -0.00170075 0.00151178
0.000944863 -0.00302356 0.00132281
0.0544241 0.0264562 0.0357158
Vibration 2
-0.00661404 -0.0102045 -0.00548021
-0.00661404 -0.0107714 -0.00831479
-0.0062361 -0.0109604 -0.0179524
-0.00585815 -0.0105825 -0.0245664
-0.00604712 -0.0102045 -0.020598
-0.0062361 -0.0100155 -0.0119053
-0.00566918 -0.0103935 -0.0232436
-0.0062361 -0.00982658 -0.00982658
-0.00642507 -0.00925966 -0.00831479
-0.00718096 -0.0100155 0.00472431
-0.00699199 -0.0188973 0.0124722
-0.0075589 -0.0187083 0.0221098
-0.00831479 -0.0096376 0.0241885
-0.00812582 -0.00075589 0.0168186
-0.0075589 -0.00113384 0.00699199
-0.00907068 -0.0103935 0.0338261
-0.00642507 -0.0115273 -0.0198421
-0.00566918 -0.00925966 -0.0243775
-0.00566918 -0.0102045 -0.0257003
-0.00642507 -0.013606 -0.0224877
-0.00718096 -0.0156847 -0.0181414
-0.00718096 -0.0147399 -0.0168186
-0.00642507 -0.0147399 -0.0234326
-0.00888171 -0.00226767 0.0370386
0.0149288 -0.00264562 -0.0202201
-0.0128501 0.00264562 0.00907068
0.00075589 0.0230547 0.0194642
0.0238105 0.0266451 0.0113384
0.0332592 0.0103935 -0.00548021
-0.00888171 0.0389284 0.0349599
0.00491329 0.0582036 0.0421409
0.0279679 0.0616051 0.034582
0.0374166 0.0457314 0.0190862
0.0536682 0.00718096 -0.0096376
-0.027401 -0.00359048 0.0173855
0.0151178 -0.00888171 -0.0334482
-0.00680301 -0.0107714 -0.00302356
-0.013606 -0.0107714 -0.00888171
-0.00642507 -0.0260782 0.0107714
-0.0075589 -0.0257003 0.0281569
-0.00850377 0.0062361 0.0185193
-0.00736993 0.00566918 0.00132281
-0.00510226 -0.00680301 -0.0270231
-0.00510226 -0.00850377 -0.0292908
-0.00774788 -0.0183303 -0.0156847
-0.00793685 -0.0166296 -0.0134171
-0.00566918 -0.0153068 -0.0236216
-0.0062361 -0.0149288 -0.0234326
-0.00736993 -0.0151178 -0.0238105
-0.00888171 -0.00529123 0.0453534
-0.00888171 -0.0020787 0.0309915
-0.00888171 0.0062361 0.0379835
-0.0268341 0.0360938 0.041385
-0.00245664 0.0708647 0.0542351
0.0381725 0.0765339 0.0404401
0.0555579 0.0478101 0.0132281
-0.0119053 -0.0130391 -0.0366607
Vibration 3
0.00812582 -0.00264562 0.0166296
0.00793685 -0.00377945 0.0160627
0.0096376 -0.00453534 0.0119053
0.0100155 -0.00377945 0.00907068
0.0100155 -0.00321253 0.013606
0.00888171 -0.00226767 0.0190862
0.00944863 -0.00359048 0.00831479
0.00869274 -0.00170075 0.0264562
0.00850377 -0.00132281 0.0338261
0.00529123 -0.00113384 0.00888171
-0.00831479 0.013606 -0.00604712
-0.0166296 0.0185193 -0.0194642
-0.0113384 0.00907068 -0.0175745
0.00434637 -0.00680301 -0.00132281
0.0126612 -0.0115273 0.0119053
-0.0232436 0.0168186 -0.0334482
0.00944863 -0.00548021 0.00850377
0.00774788 0.0226767 -0.034771
0.0075589 0.0202201 -0.0385504
0.0105825 -0.0117163 0.00188973
0.0130391 -0.0402512 0.0459203
0.0130391 -0.0364717 0.0487549
0.0107714 -0.0160627 -0.000566918
-0.0228657 0.0111494 -0.0351489
-0.000188973 -0.0179524 0.00340151
-0.0143619 0.00585815 -0.0122832
-0.0124722 0.0145509 -0.0134171
-0.00226767 0.00321253 -0.00188973
0.00491329 -0.013984 0.00718096
-0.0185193 0.0334482 -0.0232436
-0.0141729 0.0400622 -0.0211649
-0.00377945 0.027401 -0.00888171
0.00226767 0.00907068 0.000566918
0.0141729 -0.0249444 0.0168186
-0.0302356 0.00529123 -0.0236216
-0.00680301 -0.0315584 -0.000944863
0.0062361 -0.00491329 0.0173855
0.00925966 0.000188973 -0.00132281
-0.0126612 0.0213539 -0.00736993
-0.0279679 0.0302356 -0.0315584
0.00982658 -0.0151178 0.000944863
0.0243775 -0.0232436 0.0241885
0.0062361 0.0461093 -0.0653845
0.00548021 0.0425188 -0.0729434
0.0151178 -0.0655735 0.0776677
0.0158737 -0.0595264 0.0816362
0.0105825 -0.0075589 -0.00302356
0.0122832 -0.0234326 -0.00812582
0.00944863 -0.0200311 0.00850377
-0.0366607 0.0217318 -0.0508336
-0.0141729 0.020787 -0.0181414
-0.0187083 -0.0120942 -0.0394953
-0.0266451 0.0428968 -0.0326923
-0.0187083 0.054991 -0.0291018
-0.000377945 0.0321253 -0.00680301
0.0103935 -0.00075589 0.0102045
0.0115273 -0.00113384 0.0130391
Vibration 4
0.00472431 -0.0041574 0.00566918
0.00529123 -0.00226767 0.0096376
0.00491329 -0.00226767 0.00548021
0.0041574 -0.00245664 0.00472431
0.00434637 -0.00359048 0.0041574
0.00472431 -0.00396842 0.000377945
0.00302356 -0.00359048 0.00925966
0.00529123 -0.00151178 -0.0111494
0.00548021 0.0020787 -0.0217318
0.00680301 -0.00491329 0.00699199
0.0636838 -0.0385504 0.0462983
0.0642507 -0.0387394 0.0459203
0.00529123 -0.00548021 0.00548021
-0.0510226 0.0270231 -0.0323143
-0.0491329 0.0257003 -0.0311805
0.0107714 -0.00831479 0.00888171
0.00453534 -0.00132281 0.00113384
0.00472431 0.00944863 -0.0162516
0.00396842 0.0107714 -0.0226767
0.00359048 0.00075589 -0.0113384
0.00377945 -0.0105825 0.00680301
0.00453534 -0.0113384 0.0128501
0.00264562 0.0020787 -0.0183303
-0.0504557 0.0270231 -0.0377945
-0.00340151 0.00132281 0.0113384
0.000944863 -0.00188973 0.0100155
-0.00302356 0.00132281 0.00188973
-0.00718096 0.00340151 0.000188973
-0.00774788 0.00340151 0.00472431
-0.00226767 0.0020787 -0.0041574
-0.00566918 0.00491329 -0.0115273
-0.0096376 0.00661404 -0.0126612
-0.0105825 0.00585815 -0.00699199
-0.0109604 0.00529123 0.00377945
0.00434637 -0.00340151 0.0175745
-0.00434637 0.00302356 0.0175745
0.00604712 -0.00170075 0.0158737
0.0041574 -0.00434637 0.00888171
0.107714 -0.0642507 0.075589
0.109037 -0.0642507 0.0754001
-0.0954312 0.0525344 -0.0625499
-0.0922186 0.0495108 -0.0593374
0.00510226 0.0168186 -0.0249444
0.00377945 0.0192752 -0.0366607
0.00340151 -0.0185193 0.0160627
0.00491329 -0.0202201 0.0264562
0.00604712 0.00699199 -0.0215429
-0.00132281 -0.00075589 -0.0226767
0.00283459 0.00132281 -0.0162516
-0.0330702 0.0171965 -0.027401
-0.0478101 0.0321253 -0.11036
-0.110549 0.055369 -0.00661404
0.00075589 0.00075589 -0.00302356
-0.00510226 0.00566918 -0.0164406
-0.0122832 0.00831479 -0.0181414
-0.013606 0.00718096 -0.00793685
0.00453534 -0.00529123 0.0132281
Vibration 5
-0.00793685 0.00453534 -0.0158737
-0.00793685 0.0020787 -0.0134171
-0.00472431 0.000377945 -0.013606
-0.00340151 0.00151178 -0.0145509
-0.00321253 0.00396842 -0.0132281
-0.00566918 0.00548021 -0.0166296
-0.00151178 0.00585815 -0.00113384
-0.00548021 0.00736993 -0.0194642
-0.00548021 0.00850377 -0.0222988
-0.00661404 0.00359048 -0.0126612
-0.00661404 0.00170075 -0.0109604
0.00377945 -0.00434637 -0.00151178
0.0147399 -0.00869274 0.00642507
0.0113384 -0.00453534 0.00226767
0.000377945 0.00188973 -0.00736993
0.0289128 -0.0170075 0.0183303
-0.00434637 -0.00510226 -0.0062361
-0.00699199 0.0177634 -0.0400622
-0.00491329 0.0062361 -0.0266451
0.00151178 -0.0294797 0.0215429
0.00472431 -0.0514005 0.0540462
0.00226767 -0.0385504 0.0396842
0.00510226 -0.0453534 0.0394953
0.0470542 -0.0270231 0.0323143
-0.00642507 0.0224877 0.00548021
0.00736993 0.00472431 0.0143619
0.000566918 0.0062361 0.00264562
-0.0103935 0.0160627 -0.00699199
-0.0151178 0.0258892 -0.00718096
0.00453534 -0.00283459 0
-0.00188973 -0.00226767 -0.0107714
-0.0126612 0.00661404 -0.0188973
-0.0170075 0.0160627 -0.0173855
-0.0251334 0.0368497 -0.0166296
0.0192752 0.00226767 0.0321253
-0.00434637 0.0325033 0.0179524
-0.0107714 0.000377945 -0.0102045
0.00170075 0.000377945 0.00472431
-0.0141729 0.00453534 -0.0166296
0.00472431 -0.00661404 0.000566918
0.0173855 -0.00642507 0.00680301
-0.00188973 0.00472431 -0.0103935
-0.0107714 0.0438416 -0.075967
-0.0075589 0.0239995 -0.0529123
0.00944863 -0.0789905 0.0907068
0.00604712 -0.0568808 0.0642507
-0.00604712 -0.0383614 0.0432747
0.0232436 -0.0563138 0.0334482
0.00151178 -0.0540462 0.0578256
0.0599043 -0.0355268 0.0432747
0.0349599 -0.041574 0.0368497
0.0600933 -0.0119053 0.027779
0.0128501 -0.00982658 0.00680301
0.00113384 -0.00907068 -0.0130391
-0.0175745 0.00604712 -0.0266451
-0.0253223 0.0232436 -0.0239995
0 0.00340151 0.00340151
Vibration 6
-0.0107714 -0.0041574 0.00869274
-0.0107714 -0.00264562 0.0168186
-0.0124722 -0.00151178 0.013795
-0.0156847 -0.00321253 0.00699199
-0.0154958 -0.00453534 0.00075589
-0.0134171 -0.00566918 0.000188973
-0.0124722 -0.00396842 -0.00566918
-0.0132281 -0.00944863 -0.00982658
-0.0132281 -0.0128501 -0.0188973
-0.00944863 -0.00510226 0.00585815
-0.0162516 0.00302356 -0.00245664
-0.0158737 0.00283459 -0.00661404
-0.00831479 -0.00548021 -0.00264562
-0.00113384 -0.013795 0.00566918
-0.00188973 -0.0130391 0.0096376
-0.00869274 -0.00472431 -0.00774788
-0.0134171 0.0075589 0.0115273
-0.0230547 0.0336371 -0.0202201
-0.0262672 0.0517785 -0.0353379
-0.0188973 0.0425188 -0.0177634
-0.00793685 0.0128501 0.0194642
-0.00510226 -0.00434637 0.0338261
-0.0236216 0.0653845 -0.0385504
-0.000944863 -0.0132281 -0.00340151
0.0179524 0.00264562 -0.00245664
0.0281569 -0.0226767 0.0200311
0.0236216 -0.0192752 0.0075589
0.0187083 -0.013606 0.00226767
0.0183303 -0.0156847 0.0102045
0.0230547 -0.0130391 -0.00491329
0.0181414 -0.00226767 -0.0215429
0.0130391 0.00188973 -0.0249444
0.0132281 -0.00434637 -0.0126612
0.0202201 -0.0283459 0.0249444
0.0563138 -0.0251334 0.0529123
0.0334482 0.0241885 -0.013606
-0.0100155 -0.0020787 0.0234326
-0.013606 -0.00642507 0.00718096
-0.0219208 0.00944863 -0.00510226
-0.0213539 0.00907068 -0.0130391
0.00491329 -0.0202201 0.00869274
0.00321253 -0.0190862 0.0156847
-0.0289128 0.0406291 -0.034393
-0.034393 0.0731324 -0.061983
-0.00188973 0.00340151 0.0359048
0.00359048 -0.027401 0.0612271
-0.0158737 0.0733214 -0.0447865
-0.0461093 0.069164 -0.041574
-0.013606 0.0735103 -0.0451645
-0.00321253 -0.0105825 -0.00888171
-0.00132281 -0.013984 0.00888171
0.00661404 -0.020976 -0.00774788
0.0264562 -0.0162516 -0.00151178
0.0175745 0.00359048 -0.0317474
0.00888171 0.0096376 -0.0376055
0.00944863 -0.00151178 -0.0151178
-0.0190862 -0.00302356 -0.0217318
Vibration 7
-0.0221098 0.0171965 0.0158737
-0.0217318 0.0120942 0.0166296
-0.0162516 0.00850377 0.0145509
-0.0109604 0.0115273 0.0132281
-0.0109604 0.0166296 0.0143619
-0.0166296 0.0200311 0.0196532
-0.00340151 0.0187083 0.00113384
-0.0166296 0.0279679 0.0281569
-0.0166296 0.0355268 0.0376055
-0.0185193 0.0154958 0.00396842
0.0113384 0.0164406 0.00812582
0.0323143 0.00491329 0.000377945
0.0224877 -0.00812582 -0.0115273
-0.013795 -0.00604712 -0.020598
-0.034204 0.00604712 -0.0126612
0.0529123 -0.0228657 -0.013984
-0.0160627 -0.000566918 0.00585815
-0.00396842 -0.00510226 0.000377945
-0.00396842 -0.0147399 -0.0111494
-0.0166296 -0.0196532 -0.0171965
-0.0289128 -0.0154958 -0.0113384
-0.0287238 -0.00604712 0.000188973
-0.0168186 -0.0296687 -0.0304246
0.0555579 -0.0457314 -0.020409
0.00736993 0.0020787 -0.00529123
0.00359048 0.0105825 -0.0134171
0.00718096 0.00321253 -0.00472431
0.0117163 -0.00699199 0.0062361
0.0132281 -0.0107714 0.00925966
0.00566918 0.00812582 -0.00680301
0.00850377 0.00264562 0.00188973
0.0130391 -0.00774788 0.0126612
0.0145509 -0.0126612 0.0151178
0.0183303 -0.0228657 0.0221098
0.000944863 0.0143619 -0.0285349
0.0107714 0.000566918 -0.0192752
-0.0255113 0.00982658 0.0166296
-0.00075589 0.0194642 -0.00434637
0.0196532 0.0258892 0.0181414
0.0574477 0.00472431 0.00434637
-0.0255113 -0.013795 -0.0326923
-0.0614161 0.00661404 -0.0181414
0.00566918 -0.00113384 0.00472431
0.00585815 -0.0179524 -0.0156847
-0.0387394 -0.0194642 -0.0156847
-0.0385504 -0.00245664 0.00453534
-0.00680301 -0.0287238 -0.0359048
-0.0181414 -0.034393 -0.0357158
-0.0257003 -0.034393 -0.0308025
0.089384 -0.0587705 -0.0164406
0.0336371 -0.0712427 -0.0336371
0.0489439 -0.0241885 -0.0151178
0.0020787 0.0160627 -0.0154958
0.00718096 0.00661404 0
0.0151178 -0.0117163 0.0190862
0.0181414 -0.020787 0.0238105
-0.00472431 0.0279679 -0.00434637
Vibration 8
0.00548021 0.00377945 0.00340151
0.00529123 0.00529123 0.00831479
0.00434637 0.00585815 0.00377945
0.00226767 0.00510226 0.000944863
0.00264562 0.00359048 -0.00151178
0.00396842 0.00264562 -0.00302356
-0.00113384 0.00226767 -0.00188973
0.0041574 -0.000188973 -0.0111494
0.0041574 -0.00302356 -0.0187083
0.00604712 0.00340151 0.00340151
0.00151178 0.00661404 0
-0.000377945 0.00774788 -0.00170075
0.00245664 0.00585815 0.000377945
0.00812582 0.00226767 0.00434637
0.00982658 0.00132281 0.00585815
-0.000944863 0.00793685 -0.00226767
0.00396842 0.00699199 -0.00264562
0.00396842 0.0315584 -0.0419519
0.00226767 0.0351489 -0.0566918
0.00170075 0.0134171 -0.0317474
0.00302356 -0.013795 0.0115273
0.00453534 -0.0166296 0.0258892
-0.00113384 0.0196532 -0.0521564
-0.000188973 0.0075589 -0.00170075
-0.00982658 0.000944863 -0.00359048
-0.0111494 0.0075589 -0.00793685
-0.00188973 -0.0122832 0.0196532
-0.00151178 -0.0107714 0.0175745
-0.00850377 0.0113384 -0.00925966
0.0041574 -0.0398732 0.0515895
0.00944863 -0.0625499 0.0776677
0.00982658 -0.0580146 0.0721875
0.00491329 -0.0323143 0.0425188
-0.0156847 0.034771 -0.0351489
-0.0262672 0.013984 -0.0430858
-0.0158737 -0.00736993 0.00132281
0.00548021 0.00548021 0.0143619
-0.00529123 0.00321253 -0.00302356
-0.00075589 0.00812582 -0.00151178
-0.00453534 0.0102045 -0.00434637
0.0109604 0.000377945 0.0062361
0.013984 -0.00113384 0.00869274
0.00453534 0.047999 -0.0616051
0.00151178 0.054991 -0.0882502
0.00245664 -0.0326923 0.0334482
0.00604712 -0.0381725 0.0578256
0.0075589 0.0400622 -0.0627389
-0.0143619 0.00774788 -0.068975
0.000944863 0.0168186 -0.0410071
-0.00491329 0.0103935 -0.00491329
0.00245664 0.0107714 0.00321253
0.00170075 0.00170075 -0.00321253
0.00434637 -0.0425188 0.0542351
0.013795 -0.0835259 0.101289
0.0143619 -0.0740773 0.0912738
0.00491329 -0.0289128 0.0385504
-0.000566918 -0.00075589 0.000566918
Vibration 9
-0.0020787 -0.00377945 -0.00302356
-0.00170075 0.00075589 -0.0319364
-0.00510226 0.00264562 -0.0417629
-0.00907068 0.000566918 -0.048566
-0.00982658 -0.00321253 -0.0213539
-0.00642507 -0.00548021 0.0171965
-0.0132281 -0.00510226 -0.0249444
-0.00850377 -0.00642507 0.0882502
-0.0102045 -0.0041574 0.156847
0.00321253 -0.00661404 0.00377945
0.013984 -0.0119053 0.00982658
0.0143619 -0.0119053 0.00736993
0.00245664 -0.00718096 -0.00132281
-0.00510226 -0.00472431 -0.00491329
-0.0041574 -0.00510226 -0.00188973
-0.000188973 -0.00529123 -0.00548021
-0.00510226 0.0096376 -0.0315584
-0.0200311 0.0175745 -0.0281569
-0.0183303 0.020409 -0.00264562
-0.00113384 0.0153068 0.0196532
0.013606 0.0103935 0.0128501
0.0113384 0.0075589 -0.0128501
0.00226767 0.0154958 0.0534792
-0.0253223 0.00774788 -0.0253223
0.00264562 0.00680301 -0.0217318
0.00585815 -0.0102045 -0.00226767
0.00850377 -0.0117163 0.00245664
0.00642507 0.000377945 -0.0111494
0.00321253 0.0096376 -0.0230547
0.0109604 -0.0238105 0.0164406
0.0111494 -0.0228657 0.0158737
0.00888171 -0.00944863 0.00132281
0.00642507 0.0020787 -0.0120942
0 0.0213539 -0.0359048
0.0162516 -0.0113384 0.0111494
0.00736993 0.0149288 -0.0224877
0.00151178 0.00264562 -0.0425188
-0.0187083 -0.00510226 -0.0141729
0.0217318 -0.0151178 0.0153068
0.0228657 -0.0151178 0.0115273
-0.0117163 -0.00226767 -0.00982658
-0.0100155 -0.00377945 -0.00396842
-0.0328812 0.020409 -0.0444086
-0.0300466 0.0255113 0.000944863
0.0268341 0.0075589 0.0285349
0.0232436 0.00283459 -0.0170075
-0.0181414 -0.000944863 0.068975
0.0198421 0.0272121 0.0714316
0.00850377 0.020409 0.0493218
-0.0285349 0.0107714 -0.0302356
-0.0175745 0.0173855 -0.0442196
-0.0470542 0.00453534 -0.0153068
0.0126612 -0.0336371 0.027401
0.0130391 -0.0323143 0.0268341
0.00888171 -0.00831479 0.000566918
0.00472431 0.0120942 -0.0232436
-0.0181414 -0.00869274 -0.0357158
Vibration 10
0.00151178 0.000944863 0.00869274
0.00132281 0.00396842 0.0103935
-0.00151178 0.00548021 0.00340151
-0.00359048 0.0041574 -0.00359048
-0.00396842 0.00113384 -0.00321253
-0.00113384 -0.00075589 0.00245664
-0.00680301 -0.000566918 -0.00661404
-0.00132281 -0.00566918 0.00188973
-0.00151178 -0.0107714 0.00132281
0.00472431 -0.000944863 0.00925966
0.00377945 0.00340151 0.00529123
0.00377945 0.00359048 0.000944863
0.00472431 -0.000566918 0.000566918
0.00831479 -0.00642507 0.0062361
0.00831479 -0.0062361 0.0105825
0.00188973 0.00151178 -0.00585815
-0.00151178 0.00529123 0.00226767
0.00151178 -0.000944863 0.0075589
0.00302356 -0.00548021 0.00907068
-0.000566918 -0.00377945 0.00529123
-0.00529123 0.00283459 -0.00302356
-0.00491329 0.00718096 -0.00434637
-0.000566918 -0.0164406 -0.00850377
-0.00793685 0.00396842 -0.0147399
-0.00075589 0.00302356 -0.00548021
-0.000377945 -0.00264562 0.00151178
-0.000188973 -0.00151178 0.000944863
-0.00075589 0.00245664 -0.00359048
-0.00075589 0.00302356 -0.00510226
0.000188973 -0.00340151 0.00321253
-0.000188973 -0.000566918 0.000566918
-0.000944863 0.00434637 -0.00491329
-0.00132281 0.00585815 -0.00680301
-0.00075589 0.0041574 -0.00661404
0.00491329 -0.00359048 0.00944863
0.00132281 0.00661404 -0.00642507
0.00359048 0.00529123 0.0162516
-0.00982658 0.000566918 -0.00264562
0.00245664 0.00699199 0.00529123
0.00245664 0.00699199 -0.00226767
0.0109604 -0.0109604 0.00718096
0.0107714 -0.0103935 0.0145509
0.00434637 -0.00188973 0.0111494
0.0041574 -0.00944863 0.0143619
-0.00642507 0.00604712 -0.00774788
-0.00869274 0.0128501 -0.00944863
-0.0326923 0.41026 -0.126423
-0.00699199 -0.330324 -0.34582
0.0362827 -0.1508 0.404401
-0.0143619 0.00925966 -0.0230547
-0.00188973 0.0111494 -0.0154958
-0.0151178 -0.00642507 -0.0124722
0.00075589 -0.00699199 0.00718096
0.000188973 -0.00226767 0.00264562
-0.00151178 0.00718096 -0.0075589
-0.00188973 0.00925966 -0.0107714
-0.00907068 -0.00283459 -0.0111494
Vibration 11
-0.00396842 -0.00566918 -0.034393
-0.00321253 -0.013984 -0.0434637
0.00472431 -0.0187083 -0.0153068
0.0107714 -0.0151178 0.00736993
0.0115273 -0.00585815 0.00736993
0.00377945 -0.00075589 -0.00812582
0.0198421 -0.00132281 0.0188973
0.00396842 0.0145509 0.00699199
0.0041574 0.0317474 0.0221098
-0.0141729 0.000377945 -0.0360938
-0.0122832 -0.0149288 -0.0222988
-0.0145509 -0.0143619 -0.00774788
-0.0181414 0.000944863 -0.00642507
-0.0285349 0.0211649 -0.0251334
-0.0264562 0.0194642 -0.0400622
-0.0117163 -0.00472431 0.0154958
0.00529123 -0.0151178 -0.00377945
-0.00925966 -0.00566918 -0.00283459
-0.0109604 0.0132281 0.00132281
0.00340151 0.020976 0.00604712
0.0198421 0.00736993 0.0113384
0.020976 -0.0107714 0.0062361
0.000377945 0.0453534 0.00188973
0.0221098 -0.0109604 0.0466762
0.0041574 -0.00925966 0.0164406
0.00302356 0.00434637 -0.000377945
0.0020787 0.00396842 -0.000377945
0.00302356 -0.00453534 0.00907068
0.00396842 -0.00774788 0.0145509
0.00151178 0.00850377 -0.00680301
0.00170075 0.00396842 -0.00283459
0.00283459 -0.00548021 0.00736993
0.00359048 -0.0096376 0.0134171
0.00434637 -0.0115273 0.0188973
-0.0109604 0.0062361 -0.0188973
-0.00188973 -0.0185193 0.0192752
-0.00944863 -0.0177634 -0.0674632
0.0285349 -0.00529123 0.00907068
-0.00793685 -0.0283459 -0.0226767
-0.0111494 -0.0268341 0.00377945
-0.0376055 0.0376055 -0.0281569
-0.0326923 0.0334482 -0.0531013
-0.0202201 -0.0111494 -0.00642507
-0.0241885 0.0222988 0
0.0319364 0.0111494 0.0179524
0.034204 -0.020787 0.00907068
-0.0100155 0.132281 -0.0202201
-0.0162516 -0.0075589 -0.0599043
0.0236216 0.0302356 0.0765339
0.0408181 -0.0283459 0.0754001
0.00321253 -0.0336371 0.0502667
0.0474321 0.0230547 0.0383614
0.00075589 0.0154958 -0.0147399
0.00113384 0.0075589 -0.00812582
0.00302356 -0.00925966 0.0107714
0.00434637 -0.0166296 0.0211649
0.0258892 0.00510226 0.0309915
Vibration 12
0.00566918 0.00982658 -0.0260782
0.00510226 0.020598 -0.0417629
-0.00359048 0.0260782 -0.0291018
-0.0128501 0.0200311 -0.00075589
-0.013606 0.00982658 0.00472431
-0.00472431 0.00472431 -0.00831479
-0.0232436 0.0062361 0.00925966
-0.00510226 -0.0075589 -0.0102045
-0.00548021 -0.0194642 -0.0153068
0.0132281 0.0062361 -0.0192752
0.00925966 -0.00075589 -0.0134171
0.00888171 -0.00113384 -0.00151178
0.0124722 0.00736993 0.00396842
0.0198421 0.0132281 0.000566918
0.020409 0.0122832 -0.0109604
0.0075589 0.00850377 0.0151178
-0.00453534 0.0306136 -0.0387394
-0.00075589 0.0319364 -0.0447865
0.00264562 0.0128501 -0.0260782
0.00321253 -0.00793685 -0.000944863
-0.00264562 0.0020787 -0.0109604
-0.0062361 0.0221098 -0.0306136
0.0117163 -0.0449755 0.0406291
-0.0126612 0.034204 0.00529123
-0.00661404 -0.00170075 0.00642507
-0.0075589 -0.00453534 0.00888171
-0.0075589 -0.0100155 0.00925966
-0.00321253 -0.0215429 0.0219208
0 -0.0315584 0.0334482
-0.0100155 -0.00075589 0.000944863
-0.00774788 -0.00548021 0.00793685
-0.00321253 -0.0194642 0.0230547
-0.00113384 -0.02759 0.0298577
0.0115273 -0.0668963 0.0721875
0.00548021 -0.00245664 0.013984
0.00453534 0.00812582 -0.0105825
0.0120942 0.0243775 -0.0612271
-0.0279679 0.0117163 0.0117163
0.00491329 -0.00585815 -0.0187083
0.00491329 -0.00699199 0.00302356
0.0251334 0.0179524 0.00661404
0.0264562 0.0171965 -0.013795
0 0.0447865 -0.0599043
0.00585815 0.0115273 -0.0270231
-0.00377945 -0.00793685 -0.000377945
-0.0096376 0.0279679 -0.0366607
-0.0096376 -0.0470542 0.0523454
0.0538572 -0.0587705 0.0393063
-0.00075589 -0.0612271 0.0659514
-0.0245664 0.0366607 0.00982658
-0.00075589 0.0487549 -0.0122832
-0.02759 0.0351489 0.0124722
-0.013606 0.00944863 -0.0100155
-0.00944863 0.00151178 0.0020787
-0.00132281 -0.0241885 0.0292908
0.00226767 -0.0383614 0.041385
-0.0266451 -0.000377945 0.000944863
Vibration 13
-0.0151178 0.00113384 -0.0213539
-0.0147399 -0.00774788 -0.0241885
-0.00680301 -0.0130391 -0.00604712
0 -0.00907068 0.00548021
0.00075589 0.00075589 0.00170075
-0.0075589 0.00529123 -0.00982658
0.013984 0.00736993 0.0100155
-0.00699199 0.0183303 -0.00548021
-0.00661404 0.0323143 -0.00113384
-0.0113384 -0.00151178 -0.0168186
-0.0258892 0.00302356 -0.0234326
-0.00245664 -0.0109604 -0.00283459
0.0319364 -0.0266451 0.0213539
0.0459203 -0.0304246 0.0272121
0.0241885 -0.0177634 0.00850377
0.0583925 -0.0432747 0.0466762
-0.00642507 -0.0170075 0.0041574
-0.0128501 -0.0149288 0.00793685
-0.0141729 -0.00491329 0.00699199
-0.00907068 0.00264562 0.00302356
-0.00113384 -0.00548021 0.00812582
-0.000188973 -0.0153068 0.00850377
-0.0124722 0.0224877 -0.00869274
-0.0638727 0.034771 -0.0436527
0.00453534 0.0062361 0.0100155
0.00774788 0.0119053 -0.00302356
0.00661404 0.0102045 -0.00377945
0.00453534 0.00264562 0.00510226
0.00264562 0.00642507 0.00699199
0.00680301 0.0134171 -0.0122832
0.00548021 0.00680301 -0.00944863
0.0041574 -0.0041574 0.00283459
0.00377945 -0.00566918 0.0096376
-0.00151178 0.00907068 0.00529123
-0.00359048 0.0147399 -0.0222988
0.00283459 0.00548021 0.0147399
-0.0211649 -0.0119053 -0.0366607
0.0257003 0.00170075 0.00226767
-0.0557469 0.0171965 -0.0442196
-0.0117163 -0.00869274 -0.0062361
0.0767229 -0.0457314 0.0489439
0.0364717 -0.0219208 0.013984
-0.0171965 -0.0198421 0.00982658
-0.0196532 -0.00170075 0.0075589
0.0041574 -0.00302356 0.0100155
0.00566918 -0.020598 0.0109604
-0.00888171 0.0304246 -0.0130391
-0.0296687 0.0247554 -0.0115273
-0.00245664 0.0291018 -0.0117163
-0.0803134 0.0442196 -0.0534792
-0.0266451 0.0814472 -0.144753
-0.168753 0.0330702 0.00548021
0.00831479 0.020787 -0.0211649
0.00566918 0.00944863 -0.0164406
0.00359048 -0.0105825 0.00642507
0.00245664 -0.0128501 0.0181414
0.0192752 0.0168186 0.0198421
Vibration 14
0.00132281 -0.00377945 0.00491329
0.00132281 -0.00377945 0.00529123
0.000566918 -0.00340151 -0.00529123
0.000377945 -0.00340151 -0.0164406
0.000188973 -0.00245664 -0.0128501
0.00132281 -0.00359048 -0.00321253
0.00132281 -0.00151178 -0.0119053
0.000944863 -0.00944863 0.00075589
0.000566918 -0.0190862 0.00472431
0.00226767 -0.00453534 0.00793685
0.00529123 -0.00472431 0.00850377
0.0020787 -0.00283459 0.00359048
-0.0041574 -0.00151178 -0.00113384
-0.00359048 -0.00377945 0.00075589
-0.00075589 -0.00510226 0.00510226
-0.0120942 0.00359048 -0.0105825
0.00075589 -0.00377945 -0.00321253
-0.000944863 -0.00548021 0.00113384
-0.00113384 -0.00359048 0.00245664
0.000188973 0.000377945 -0.00113384
0.0020787 0.000944863 -0.00396842
0.0020787 -0.00151178 -0.00453534
-0.000377945 0.00491329 -0.00245664
0.0041574 -0.0096376 0.000188973
-0.00283459 0.0075589 -0.00718096
-0.000566918 0.0119053 -0.00245664
-0.0145509 0.0268341 -0.0366607
0.00529123 -0.0285349 0.0249444
-0.00680301 0.00340151 -0.00907068
-0.0292908 0.0873053 -0.0929745
-0.0147399 0.0489439 -0.041196
0.0149288 -0.0578256 0.0736993
0.0232436 -0.089384 0.0984547
-0.0243775 0.0434637 -0.0508336
0.0385504 0 0.0699199
0.00245664 0.020598 0.000566918
0.00170075 -0.00340151 0.013795
0.00585815 0.00132281 -0.0154958
0.0100155 -0.0062361 0.0120942
0.00396842 -0.0020787 0.00321253
-0.00661404 -0.00377945 -0.00170075
-0.00170075 -0.00642507 0.00604712
-0.0020787 -0.00793685 0.00321253
-0.00245664 -0.00453534 0.00529123
0.00340151 0.00359048 -0.00566918
0.00340151 -0.00132281 -0.00604712
-0.00075589 0.0117163 -0.00434637
-0.00359048 0.00188973 -0.00661404
0.00283459 0.00491329 0.00226767
0.000188973 -0.00604712 -0.00604712
0.00283459 -0.0115273 0.0213539
0.0198421 -0.0200311 -0.00831479
-0.0523454 0.157414 -0.168942
-0.0262672 0.0956201 -0.0839038
0.0296687 -0.109415 0.135304
0.0436527 -0.155147 0.170075
0.00396842 -0.00075589 -0.0062361
Vibration 15
-0.00850377 -0.00718096 0.0306136
-0.00718096 -0.0134171 0.0107714
-0.00226767 -0.0170075 -0.0217318
0.00188973 -0.0147399 -0.0192752
0.0020787 -0.0062361 0.00585815
-0.00283459 -0.00359048 0.0183303
0.0183303 0.00188973 0.0175745
-0.00188973 0.00321253 -0.00718096
-0.00075589 0.0100155 -0.0428968
-0.0103935 -0.0075589 0.0379835
-0.00340151 -0.00075589 0.0323143
-0.00264562 0.000188973 0.0158737
-0.0107714 -0.0103935 0.0062361
-0.0134171 -0.0221098 0.0153068
-0.0143619 -0.0200311 0.0306136
-0.013984 -0.00566918 -0.0211649
-0.00377945 -0.00453534 -0.0404401
-0.0202201 0.00604712 -0.0393063
-0.020409 0.0162516 -0.0194642
-0.00245664 0.0143619 -0.000377945
0.0113384 0.0194642 -0.0226767
0.0096376 0.00907068 -0.0423299
0.00434637 0.00491329 0.0555579
0.000188973 -0.0391173 -0.020787
0.00982658 0.00869274 0.0202201
0.013795 0.0102045 -0.00151178
0.0153068 0.00736993 0.00283459
0.00888171 0.00377945 0.00793685
0.00566918 0.00888171 0.013795
0.0173855 0.00642507 -0.0062361
0.0128501 0.00188973 -0.0103935