[Molden Format]
[FREQ]
-1674.2
11.1
21.5
25.6
27.3
27.7
33.3
38.5
41.5
44.6
56.0
67.9
78.6
82.2
95.4
98.0
107.4
110.6
130.3
142.4
159.9
172.8
180.1
201.3
214.0
219.4
238.0
258.9
264.2
282.4
288.7
315.7
328.3
342.3
349.2
356.5
362.7
373.6
393.9
412.7
429.8
448.1
473.1
488.8
510.1
522.2
544.0
555.9
566.2
569.7
589.1
611.9
615.8
629.8
648.8
650.8
663.2
673.6
694.1
713.0
721.6
736.6
770.3
786.8
796.5
812.9
813.5
832.0
846.8
879.8
882.8
895.0
896.8
901.0
938.9
958.1
963.1
972.2
996.9
1004.8
1008.5
1009.3
1015.2
1017.1
1033.0
1035.9
1046.5
1070.8
1078.4
1081.1
1096.4
1119.8
1126.9
1163.8
1178.7
1181.3
1183.6
1193.9
1207.4
1210.8
1236.4
1255.4
1261.8
1269.3
1274.6
1277.9
1283.6
1286.8
1297.0
1301.9
1327.3
1329.3
1332.5
1337.5
1339.5
1348.1
1349.4
1351.5
1365.1
1382.7
1394.1
1428.2
1460.2
1497.6
1504.4
1516.5
1522.8
1528.4
1547.1
1556.0
1569.2
1597.9
1600.8
1646.4
1669.3
1689.8
1693.1
1699.5
1700.9
1706.5
1708.4
1710.2
1825.7
2174.2
2451.3
2651.7
2654.2
2667.3
2673.8
2713.6
2732.6
2744.6
2744.8
2745.2
2745.7
2749.2
2750.3
2756.7
2760.5
2762.8
2765.7
2765.9
2766.7
2770.0
2779.5
       
[FR-COORD]
C -2.43983 -3.14243 -0.628901
C 0.199366 -3.14243 -0.628901
C 1.48854 -0.828834 -0.628901
N 0.263617 1.40255 -0.659892
C -2.30868 1.43014 -0.64742
C -3.75224 -0.833747 -0.628901
N -3.4221 3.76981 -0.568052
C -6.41732 -0.709592 -0.626633
N -8.60241 -0.573532 -0.616996
C -3.79816 -5.55447 -0.619263
C -3.33064 -7.32137 -2.53847
C -4.6011 -9.60831 -2.56379
C -6.34721 -10.1246 -0.628145
C -6.82248 -8.39549 1.30561
C -5.53652 -6.10079 1.28804
O -7.4459 -12.4276 -0.873809
C 4.26001 -0.637971 -0.498132
C 5.57696 -1.93791 1.38366
C 8.17401 -1.61628 1.61628
C 9.47074 -0.0160627 -0.0404401
C 8.15266 1.23966 -1.95152
C 5.55013 0.93995 -2.17489
C 12.253 0.326923 0.231302
C -9.33506 -13.0907 0.917462
C -2.39806 6.11648 -0.735859
C -0.0417629 5.09243 3.63281
C 2.35479 5.96605 2.4266
C 2.36764 6.95117 -0.0187083
C 0.125289 7.04225 -1.6726
C 4.58466 5.89046 3.82802
C 6.83382 6.78657 2.7915
C 6.85649 7.76356 0.345631
C 4.6321 7.84501 -1.05673
O 0.205224 7.8057 -3.81762
O -0.0436527 2.91528 4.64891
O -4.28609 7.49371 -0.174044
H 1.24552 -4.91064 -0.622287
H 1.42504 1.74932 4.55991
H -1.97193 -6.87822 -4.02701
H -4.28269 -10.9984 -4.0425
H -8.17023 -8.79705 2.79642
H -5.89462 -4.72167 2.78073
H 4.57106 -3.19005 2.67226
H 9.20202 -2.61349 3.0914
H 9.15364 2.46666 -3.2628
H 4.50548 1.94982 -3.64018
H 13.2795 -1.30712 -0.548398
H 12.8231 0.512683 2.22005
H 12.9531 2.01124 -0.759292
H -9.92692 -14.9666 0.252278
H -10.9219 -11.7651 0.844896
H -8.53495 -13.2179 2.81966
H 4.57616 5.13231 5.74118
H 8.57406 6.71193 3.88811
H 8.61299 8.45633 -0.470353
H 4.64759 8.6009 -2.9818
H -5.62212 5.23114 0.140218

[FR-NORM-COORD]
Vibration 1
-0.000566918 0.00113384 0.000377945
0.00075589 0 0
0.00264562 -0.00188973 0.00151178
0.00585815 -0.00604712 0.000188973
0.0154958 -0.00170075 -0.00925966
0.00226767 0.00170075 -0.00075589
0.048377 -0.0105825 -0.013984
0 0.00151178 0
-0.000188973 -0.000188973 0
0 -0.000188973 0
0 0.000188973 0
-0.000188973 -0.000188973 0
0.000188973 0.000377945 0
0 -0.000188973 0
0.000188973 0 0
-0.000188973 -0.000188973 0
0.000944863 -0.00075589 0
0.000188973 0 0.000188973
0.000188973 0.000188973 0
-0.000188973 0 0
0.000188973 0.000188973 0
0 -0.000188973 0
0.000188973 0 0
0 0 -0.000188973
0.0285349 -0.089384 -0.0109604
0 -0.00075589 0.00075589
0.000188973 -0.000188973 -0.000188973
-0.00075589 -0.000188973 -0.000188973
-0.00132281 0.00699199 0.00188973
-0.000188973 0.000188973 0
0 0 0
-0.000188973 0 0
0 0 -0.000188973
-0.00075589 0 0
-0.000377945 0.000944863 0.000188973
-0.0633058 -0.0221098 0.0158737
-0.000188973 -0.000566918 -0.00151178
-0.000566918 -0.000944863 -0.00680301
0 0.000188973 0.000188973
-0.000188973 0.000188973 0.000566918
0.000188973 0 -0.000377945
-0.000188973 0.00075589 -0.000566918
-0.000188973 -0.000188973 -0.000566918
0 0 -0.000377945
-0.000188973 -0.000377945 0
-0.000188973 -0.00132281 0.000377945
-0.000188973 0 0
-0.000188973 -0.000188973 -0.000188973
-0.000188973 -0.000188973 0
-0.000188973 0.000188973 0.000377945
0.000188973 0.000188973 0
0 0.000188973 -0.000188973
-0.000188973 -0.00075589 0
0.000377945 -0.00075589 0
0 -0.000377945 -0.000566918
0.00075589 -0.000944863 -0.000566918
-0.306703 1.56639 0.147966
Vibration 2
-0.00396842 -0.00529123 0.00944863
-0.00396842 -0.00585815 0.0103935
-0.00359048 -0.00604712 0.0175745
-0.00302356 -0.00566918 0.0215429
-0.00302356 -0.00510226 0.0211649
-0.00359048 -0.00491329 0.0166296
-0.00245664 -0.00491329 0.0241885
-0.00340151 -0.00434637 0.0187083
-0.00340151 -0.0041574 0.0213539
-0.00472431 -0.00491329 -0.00075589
-0.00548021 0.00377945 -0.00888171
-0.00680301 0.00472431 -0.0200311
-0.0075589 -0.00321253 -0.0228657
-0.00661404 -0.0122832 -0.0145509
-0.00510226 -0.0128501 -0.00340151
-0.00925966 -0.00113384 -0.034204
-0.00377945 -0.00642507 0.0217318
-0.00680301 -0.00774788 0.0228657
-0.00718096 -0.00699199 0.027779
-0.00491329 -0.00510226 0.0315584
-0.00188973 -0.0041574 0.0300466
-0.00132281 -0.00472431 0.0251334
-0.00548021 -0.00434637 0.0364717
-0.0111494 -0.00793685 -0.0385504
-0.00302356 -0.00548021 0.0147399
0.0366607 0.00188973 -0.00075589
0.0224877 0.0145509 -0.0202201
0.000377945 0.0096376 -0.0222988
-0.0105825 -0.00774788 -0.00793685
0.0321253 0.0319364 -0.034393
0.0194642 0.0449755 -0.0504557
-0.00264562 0.0398732 -0.0529123
-0.0119053 0.0219208 -0.0387394
-0.0264562 -0.0230547 -0.0141729
0.05518 0.000188973 -0.00453534
0.00151178 -0.0041574 0.0268341
-0.00434637 -0.00604712 0.00566918
0.0587705 0.00566918 -0.0232436
-0.00491329 0.0100155 -0.00661404
-0.00736993 0.0115273 -0.0264562
-0.00680301 -0.0185193 -0.0164406
-0.00434637 -0.0198421 0.00321253
-0.00869274 -0.00925966 0.0198421
-0.0096376 -0.00812582 0.0285349
0.000188973 -0.00264562 0.0328812
0.000944863 -0.00396842 0.0239995
-0.00340151 0.00188973 0.0264562
-0.00699199 -0.0168186 0.0379835
-0.0062361 0.00302356 0.047999
-0.0132281 -0.00377945 -0.048566
-0.00944863 -0.00548021 -0.0326923
-0.0122832 -0.0185193 -0.0389284
0.0493218 0.0353379 -0.0328812
0.0268341 0.0591484 -0.0614161
-0.0124722 0.0500777 -0.0653845
-0.0292908 0.0177634 -0.0406291
0.00302356 -0.00359048 0.0383614
Vibration 3
-0.00321253 -0.00226767 -0.0168186
-0.00321253 -0.00396842 -0.020598
-0.00151178 -0.00472431 -0.0187083
-0.00075589 -0.0041574 -0.0170075
-0.00075589 -0.00264562 -0.0158737
-0.0020787 -0.00151178 -0.0164406
0.00151178 -0.00151178 -0.0117163
-0.0020787 -0.000377945 -0.0147399
-0.0020787 0.000377945 -0.013795
-0.00529123 -0.00113384 -0.00812582
-0.0164406 -0.00510226 -0.00699199
-0.0181414 -0.00453534 0.00472431
-0.00793685 0.000377945 0.0151178
0.00302356 0.00491329 0.013795
0.0041574 0.0041574 0.00188973
-0.0100155 0.000188973 0.0264562
-0.0020787 -0.00453534 -0.0134171
-0.00151178 -0.0379835 -0.0366607
-0.00264562 -0.0366607 -0.0266451
-0.00359048 -0.00113384 0.00699199
-0.00359048 0.0323143 0.0289128
-0.00226767 0.0300466 0.0187083
-0.00510226 0.000944863 0.0188973
0.00132281 0.00396842 0.0400622
0.0062361 -0.00321253 -0.00396842
0.0124722 -0.0402512 -0.00718096
0.00510226 -0.00585815 0.00245664
0.00226767 0.0102045 0.00907068
0.00850377 -0.0062361 -0.000188973
0.000944863 0.0109604 0.0100155
-0.00604712 0.0453534 0.0247554
-0.00869274 0.062361 0.0313695
-0.00434637 0.0444086 0.0236216
0.0153068 -0.0196532 -0.00472431
0.0313695 -0.0515895 -0.0317474
0.00907068 -0.000944863 0.000377945
-0.00491329 -0.00491329 -0.0236216
0.0404401 -0.0391173 -0.047999
-0.0239995 -0.00907068 -0.0149288
-0.0268341 -0.00774788 0.00585815
0.0103935 0.00907068 0.0215429
0.0126612 0.00774788 0.00075589
-0.000377945 -0.0651955 -0.061983
-0.00245664 -0.0633058 -0.0445975
-0.00453534 0.0602823 0.0542351
-0.00226767 0.055369 0.0357158
0.000566918 0.0147399 -0.00226767
-0.0109604 -0.0270231 0.0232436
-0.0062361 0.0171965 0.0457314
-0.00226767 0.00226767 0.048188
0.000566918 0.00340151 0.0466762
0.0134171 0.00888171 0.0353379
0.00302356 -0.00283459 0.00472431
-0.00925966 0.0591484 0.0308025
-0.0141729 0.089762 0.0428968
-0.00604712 0.0568808 0.0285349
0.00434637 0.000944863 -0.00699199
Vibration 4
-0.000377945 -0.00585815 -0.00491329
-0.000188973 -0.00548021 -0.00642507
-0.00188973 -0.00491329 -0.0111494
-0.00245664 -0.00566918 -0.0132281
-0.00264562 -0.00585815 -0.00831479
-0.00151178 -0.0062361 -0.00642507
0.000188973 -0.00472431 -0.00340151
-0.00151178 -0.00736993 -0.00491329
-0.00170075 -0.00831479 -0.00396842
-0.0020787 -0.00491329 -0.00075589
-0.00869274 -0.00661404 -0.00075589
-0.0151178 -0.00302356 0.000944863
-0.0147399 0.0020787 0.00264562
-0.00642507 0.00283459 0.00396842
0 -0.000944863 0.00226767
-0.0232436 0.00604712 0.00283459
-0.0020787 0.00321253 -0.0100155
-0.00548021 0.0566918 0.0291018
-0.00888171 0.0788016 0.0360938
-0.00925966 0.0462983 0.00434637
-0.00548021 -0.0117163 -0.0362827
-0.00245664 -0.0326923 -0.0436527
-0.013795 0.0744552 0.0156847
-0.0258892 0.013606 0.00283459
0.00850377 -0.0075589 0.00453534
0.0177634 -0.0398732 -0.00226767
0.0134171 -0.0217318 0.0020787
0.0100155 -0.0113384 0.0062361
0.0111494 -0.0145509 0.00434637
0.0128501 -0.0170075 0.00302356
0.00925966 -0.00188973 0.00831479
0.0062361 0.00774788 0.0122832
0.00661404 0.00302356 0.0113384
0.013795 -0.0213539 0.0020787
0.0292908 -0.0457314 -0.0145509
0.0141729 -0.00283459 0.0122832
0.000566918 -0.00491329 -0.00302356
0.0349599 -0.0379835 -0.0226767
-0.00925966 -0.0103935 -0.00245664
-0.020598 -0.00396842 0.000566918
-0.00491329 0.0062361 0.0062361
0.0062361 -0.000188973 0.00321253
-0.00548021 0.0818251 0.0531013
-0.0109604 0.121887 0.0668963
-0.00529123 -0.0391173 -0.061983
-0.000188973 -0.075778 -0.0748331
0.0041574 0.0542351 0.0818251
-0.0326923 0.147966 0.0141729
-0.0166296 0.0445975 -0.0370386
-0.034582 0.0166296 0.00188973
-0.0198421 0.020787 0.0041574
-0.0258892 0.00869274 0.00245664
0.0151178 -0.0251334 0
0.00888171 0.00226767 0.00925966
0.00359048 0.0188973 0.0158737
0.00472431 0.0102045 0.013984
0.00661404 0.00075589 0.00548021
Vibration 5
-0.00982658 0.0096376 -0.0160627
-0.0100155 0.0062361 -0.0196532
-0.00793685 0.00491329 -0.0120942
-0.00548021 0.00604712 -0.00888171
-0.00566918 0.00907068 -0.0075589
-0.00774788 0.0103935 -0.0075589
-0.00226767 0.0103935 -0.00434637
-0.00774788 0.0103935 0.00396842
-0.00774788 0.00925966 0.0147399
-0.0102045 0.0096376 -0.0168186
-0.0434637 0.0289128 -0.0425188
-0.0357158 0.0245664 -0.0362827
0.0075589 0.000566918 -0.00377945
0.0372276 -0.0162516 0.0185193
0.0272121 -0.0103935 0.0113384
0.0156847 -0.00396842 0.00188973
-0.00812582 0.000377945 -0.0020787
-0.020787 0.00718096 0.0115273
-0.0215429 0.00340151 0.0241885
-0.0096376 -0.00736993 0.0228657
0.00321253 -0.0151178 0.00907068
0.00359048 -0.0107714 -0.00340151
-0.0105825 -0.0109604 0.0362827
0.0702978 -0.0362827 0.0474321
0.00151178 0.00907068 -0.00075589
0.00170075 0 -0.00434637
0.00359048 -0.00548021 -0.00453534
0.0041574 -0.00302356 -0.00359048
0.00245664 0.00699199 -0.000566918
0.00472431 -0.0143619 -0.00680301
0.00680301 -0.0213539 -0.00850377
0.0075589 -0.0194642 -0.00774788
0.0062361 -0.0102045 -0.00529123
0.00151178 0.013984 0.00188973
-0.00264562 0.000377945 -0.00340151
0.00396842 0.0111494 0.00264562
-0.0120942 0.00491329 -0.0264562
-0.00453534 -0.0020787 -0.00226767
-0.0748331 0.0468652 -0.0655735
-0.0610381 0.0385504 -0.054991
0.0680301 -0.0334482 0.041385
0.0498888 -0.0226767 0.027779
-0.0302356 0.0153068 0.0120942
-0.0313695 0.00907068 0.034771
0.0126612 -0.0239995 0.00812582
0.0134171 -0.0162516 -0.013984
-0.00907068 -0.0113384 0.0389284
-0.0190862 -0.0141729 0.0391173
-0.0041574 -0.0105825 0.041574
0.0706758 -0.0366607 0.048566
0.0555579 -0.0510226 0.100344
0.122265 -0.0434637 0.0251334
0.0041574 -0.0160627 -0.0075589
0.0075589 -0.0283459 -0.0103935
0.00907068 -0.0251334 -0.00907068
0.00680301 -0.00850377 -0.00453534
0.000566918 0.0128501 -0.000377945
Vibration 6
0.00869274 -0.00812582 0.0153068
0.00831479 -0.00736993 0.00680301
0.00718096 -0.00642507 0.0041574
0.00529123 -0.00736993 0.0041574
0.00529123 -0.00850377 0.00944863
0.00680301 -0.00907068 0.0222988
0.00548021 -0.00793685 -0.00245664
0.00680301 -0.0124722 0.0425188
0.00661404 -0.0160627 0.0616051
0.00604712 -0.00680301 0.0105825
-0.0287238 0.0168186 -0.0194642
-0.0404401 0.0234326 -0.0323143
-0.0160627 0.0062361 -0.0149288
0.0224877 -0.0190862 0.0171965
0.0328812 -0.0247554 0.0296687
-0.034582 0.0170075 -0.0332592
0.00718096 -0.0020787 -0.0020787
0.0149288 -0.00491329 -0.0096376
0.0145509 0.00188973 -0.013984
0.00642507 0.0117163 -0.0107714
-0.00113384 0.0141729 -0.00396842
-0.000566918 0.00699199 0.000377945
0.00566918 0.0200311 -0.013795
-0.0162516 0.00453534 -0.0185193
0.00793685 -0.0103935 -0.0215429
-0.0183303 0.020787 -0.00283459
-0.0119053 0.013795 0.00491329
0.00302356 -0.00529123 -0.00264562
0.0141729 -0.0247554 -0.0190862
-0.0213539 0.0283459 0.020409
-0.0160627 0.0247554 0.0289128
-0.00132281 0.00661404 0.0217318
0.00812582 -0.00850377 0.00585815
0.0289128 -0.0538572 -0.0287238
-0.0249444 0.0255113 0.00736993
0.00774788 -0.00302356 -0.0404401
0.00888171 -0.00699199 0.00113384
-0.0251334 0.0243775 0.0211649
-0.0474321 0.0304246 -0.0323143
-0.068786 0.0421409 -0.0561249
0.0432747 -0.0336371 0.0321253
0.0612271 -0.0428968 0.0531013
0.0213539 -0.0120942 -0.0115273
0.020598 -0.000188973 -0.0196532
-0.0075589 0.0217318 -0.00188973
-0.00661404 0.00888171 0.00585815
0.0096376 0.013984 0.00472431
0.00359048 0.0427078 -0.0151178
0.00321253 0.0107714 -0.0311805
-0.041385 0.0202201 -0.0406291
-0.00585815 0.0192752 0.0243775
0.00850377 -0.0328812 -0.0313695
-0.0328812 0.0430858 0.0262672
-0.0232436 0.0364717 0.041196
0.00283459 0.00396842 0.0285349
0.0196532 -0.0234326 0.000188973
0.00453534 0.00075589 -0.0226767
Vibration 7
0.0236216 -0.0107714 -0.0062361
0.0232436 -0.00642507 -0.00680301
0.0187083 -0.00359048 -0.0062361
0.0149288 -0.00548021 -0.00774788
0.0149288 -0.0102045 -0.00944863
0.0196532 -0.0132281 -0.00982658
0.00472431 -0.0154958 -0.00604712
0.0192752 -0.0198421 -0.0128501
0.0188973 -0.0258892 -0.0162516
0.0200311 -0.00888171 0.00151178
-0.0122832 -0.00321253 -0.0107714
-0.0317474 0.00718096 -0.00888171
-0.0171965 0.0126612 0.00548021
0.0211649 0.00453534 0.0224877
0.0393063 -0.00604712 0.0200311
-0.0451645 0.0264562 0.00170075
0.0181414 0.000944863 0
0.0166296 -0.0075589 -0.00453534
0.0153068 -0.00321253 0.0041574
0.0160627 0.00982658 0.0173855
0.0183303 0.0175745 0.0211649
0.0194642 0.0132281 0.0124722
0.0143619 0.0153068 0.02759
-0.0425188 0.0408181 0.0100155
-0.0143619 -0.00680301 0.00321253
-0.0075589 -0.00359048 -0.00264562
-0.00869274 -0.00699199 -0.0075589
-0.0154958 0.00321253 -0.00359048
-0.0234326 0.0224877 0.00831479
-0.00264562 -0.0215429 -0.0179524
-0.00359048 -0.0270231 -0.0245664
-0.0103935 -0.0175745 -0.020976
-0.0164406 -0.00226767 -0.0103935
-0.0370386 0.0614161 0.0215429
-0.00812582 -0.00340151 -0.00245664
-0.0262672 -0.0249444 0.0075589
0.0258892 -0.00472431 -0.00680301
-0.00925966 -0.00472431 -0.00377945
-0.0238105 -0.00680301 -0.0222988
-0.0589595 0.0122832 -0.0194642
0.0357158 0.00661404 0.0362827
0.0676522 -0.0109604 0.0313695
0.0160627 -0.0173855 -0.0145509
0.0134171 -0.00982658 0.000944863
0.0190862 0.027401 0.0308025
0.0211649 0.0194642 0.0156847
0.020976 0.0249444 0.0158737
0.00907068 -0.000566918 0.0306136
0.0120942 0.0258892 0.0440306
-0.0754001 0.054991 -0.000188973
-0.0234326 0.0650066 0.0319364
-0.0304246 0.0141729 0.00321253
0.00283459 -0.0291018 -0.020787
0.00113384 -0.0387394 -0.0326923
-0.0111494 -0.0219208 -0.0260782
-0.0221098 0.0062361 -0.00718096
-0.00774788 -0.0366607 -0.0020787
Vibration 8
-0.00434637 0.000944863 -0.00245664
-0.0041574 0.000377945 -0.00736993
-0.00302356 -0.000377945 -0.00642507
-0.00302356 -0.000188973 -0.00264562
-0.00283459 0.000944863 0.000944863
-0.00377945 0.00151178 0.00245664
-0.000566918 0.0020787 0.00302356
-0.00359048 0.00340151 0.00907068
-0.00340151 0.00566918 0.0151178
-0.00377945 0.00075589 -0.00226767
0.00491329 -0.00377945 0.00377945
0.00793685 -0.00548021 0.00529123
0.00188973 -0.00283459 0.000377945
-0.00774788 0.0020787 -0.0062361
-0.0103935 0.00340151 -0.00736993
0.00661404 -0.00529123 0.00302356
-0.00321253 0.00170075 -0.00680301
0.00188973 -0.0234326 -0.0272121
-0.000188973 -0.0151178 -0.020598
-0.0062361 0.0185193 0.0062361
-0.0096376 0.0408181 0.0241885
-0.00850377 0.0317474 0.0175745
-0.0102045 0.0330702 0.0300466
0.00132281 -0.00340151 -0.00188973
0.00302356 0.000566918 0.00170075
0.00377945 0.0041574 -0.000566918
0.00604712 -0.00661404 -0.00377945
0.0062361 -0.0107714 -0.00548021
0.00359048 -0.00434637 -0.00170075
0.0075589 -0.0124722 -0.00661404
0.00944863 -0.0226767 -0.0113384
0.00982658 -0.02759 -0.0134171
0.00812582 -0.0213539 -0.0102045
0.00226767 -0.00340151 -0.00151178
-0.00283459 0.0075589 0.00661404
0.00604712 0.00359048 0.00396842
-0.00491329 -0.000188973 -0.0117163
-0.0062361 0.00302356 0.0115273
0.00944863 -0.00585815 0.00718096
0.0151178 -0.00888171 0.0100155
-0.0132281 0.00453534 -0.0103935
-0.0173855 0.00661404 -0.0119053
0.00661404 -0.048188 -0.0476211
0.00453534 -0.0330702 -0.0360938
-0.0154958 0.0663294 0.0436527
-0.0117163 0.0495108 0.0319364
0.000944863 -0.0878723 0.300088
-0.0738883 0.317285 0.0228657
0.0366607 -0.117163 -0.191618
0.00812582 -0.00699199 0.00245664
-0.00132281 -0.00718096 -0.0126612
-0.00585815 0.00491329 0.00170075
0.00736993 -0.00888171 -0.00529123
0.0105825 -0.0266451 -0.0134171
0.0115273 -0.0360938 -0.0170075
0.00812582 -0.0243775 -0.0115273
0.00283459 0.00566918 0.00585815
Vibration 9
-0.00491329 0.00188973 -0.000188973
-0.00453534 0.00188973 -0.00925966
-0.00396842 0.00151178 -0.0117163
-0.00453534 0.00132281 -0.0115273
-0.00434637 0.00188973 -0.00302356
-0.00472431 0.00226767 0.00718096
-0.00113384 0.00340151 -0.00340151
-0.00453534 0.00434637 0.027401
-0.00434637 0.00718096 0.0466762
-0.00302356 0.000944863 0.00113384
0.00982658 -0.00453534 0.00925966
0.0134171 -0.00642507 0.00925966
0.00283459 -0.00283459 0.00075589
-0.0102045 0.00245664 -0.00736993
-0.0128501 0.00396842 -0.00680301
0.00774788 -0.00529123 0.00151178
-0.00453534 0.00529123 -0.00869274
-0.00340151 -0.00793685 -0.0188973
-0.00585815 0.00472431 -0.00566918
-0.0096376 0.0309915 0.0175745
-0.0096376 0.0410071 0.0234326
-0.00661404 0.0279679 0.0102045
-0.0126612 0.0487549 0.0272121
-0.00604712 0.000188973 -0.0107714
0.00510226 0.00075589 -0.00585815
0.00264562 -0.00566918 -0.00642507
0.00604712 -0.0158737 -0.00718096
0.00869274 -0.0162516 -0.00736993
0.00812582 -0.00774788 -0.00642507
0.00661404 -0.0255113 -0.00850377
0.00982658 -0.0351489 -0.0100155
0.0124722 -0.0351489 -0.0100155
0.0119053 -0.0258892 -0.00869274
0.0103935 -0.00774788 -0.00642507
-0.00491329 -0.00359048 -0.0020787
0.00925966 0.00642507 -0.00604712
-0.00472431 0.00170075 -0.0132281
-0.00831479 -0.00812582 0.00245664
0.0171965 -0.00736993 0.0151178
0.0239995 -0.0107714 0.0154958
-0.0183303 0.00548021 -0.013795
-0.0224877 0.00736993 -0.0120942
-0.00075589 -0.0272121 -0.0353379
-0.0062361 -0.00585815 -0.0126612
-0.0109604 0.0595264 0.0396842
-0.00699199 0.0360938 0.0160627
0.00453534 0.156091 -0.175933
0.0134171 -0.171209 0.0396842
-0.0566918 0.175745 0.211271
0.000188973 -0.00245664 -0.00888171
-0.00604712 -0.000944863 -0.027779
-0.020787 0.00718096 -0.0041574
0.00472431 -0.0253223 -0.00850377
0.0102045 -0.0427078 -0.0109604
0.0147399 -0.0421409 -0.0107714
0.013984 -0.0255113 -0.00850377
0.00321253 0.0102045 -0.00321253
Vibration 10
0.00359048 0.00396842 0.00321253
0.00377945 0.00396842 -0.0147399
0.00472431 0.00321253 -0.0221098
0.00661404 0.0041574 -0.0291018
0.00661404 0.00434637 -0.0115273
0.00548021 0.00472431 0.0160627
0.00340151 0.00283459 -0.0170075
0.00585815 0.0100155 0.0670853
0.00642507 0.0166296 0.116785
0.00604712 0.00283459 0.00642507
0.0217318 -0.00283459 0.0147399
0.0247554 -0.0041574 0.0117163
0.0105825 -0.000188973 0
-0.00396842 0.00396842 -0.00736993
-0.00529123 0.00472431 -0.00359048
0.0134171 -0.00132281 -0.00302356
0.00472431 -0.00321253 -0.013795
-0.0113384 0.00434637 0.00321253
-0.0113384 -0.00604712 0.0153068
0.00491329 -0.0241885 0.0103935
0.020976 -0.0315584 -0.00529123
0.020409 -0.020598 -0.0173855
0.00510226 -0.0364717 0.0249444
-0.0103935 0.00812582 -0.0245664
-0.00699199 0.00680301 -0.0188973
-0.00982658 -0.020976 -0.0141729
-0.0126612 -0.00585815 -0.00907068
-0.0113384 0.013795 -0.00113384
-0.00774788 0.0228657 -0.00529123
-0.0143619 -0.0134171 -0.00680301
-0.0147399 -0.000377945 0.00396842
-0.0134171 0.020598 0.0122832
-0.0115273 0.027401 0.00982658
-0.00604712 0.0449755 0.00264562
-0.00699199 -0.0364717 -0.0466762
-0.0156847 -0.00113384 -0.0279679
0.00377945 0.00377945 -0.0198421
-0.00718096 -0.0353379 -0.0697309
0.0315584 -0.00548021 0.0226767
0.0374166 -0.00812582 0.0181414
-0.013795 0.00642507 -0.0156847
-0.0160627 0.00699199 -0.00793685
-0.0239995 0.0177634 0.0062361
-0.0238105 0.000377945 0.0283459
0.0336371 -0.0453534 -0.00869274
0.0330702 -0.0260782 -0.0298577
0.00075589 -0.069164 0.0878723
-0.013795 0.0232436 0.0249444
0.0279679 -0.0736993 -0.0221098
-0.00642507 0.0075589 -0.0264562
-0.00642507 0.0115273 -0.0478101
-0.0340151 0.0117163 -0.0143619
-0.0154958 -0.0298577 -0.0132281
-0.0160627 -0.00642507 0.00566918
-0.013606 0.0311805 0.020598
-0.0100155 0.0432747 0.0160627
-0.0062361 -0.00604712 -0.0279679
Vibration 11
0.00396842 -0.00944863 -0.0396842
0.00396842 -0.0100155 -0.0583925
0.00529123 -0.0105825 -0.0408181
0.00774788 -0.00888171 -0.0164406
0.00793685 -0.00831479 -0.0062361
0.00661404 -0.0075589 -0.0143619
0.00680301 -0.0096376 0.0160627
0.00680301 -0.00245664 0.00736993
0.00718096 0.00377945 0.027401
0.00113384 -0.0075589 -0.0317474
0.00321253 -0.0251334 -0.0149288
0.00075589 -0.0243775 0.00245664
-0.00491329 -0.00548021 0.00226767
-0.00888171 0.0128501 -0.0151178
-0.00529123 0.0102045 -0.0317474
-0.0062361 -0.00699199 0.0224877
0.00548021 -0.0141729 -0.0334482
-0.00869274 -0.0062361 -0.0179524
-0.0113384 -0.00132281 0.00359048
0.000188973 -0.00510226 0.00907068
0.0153068 -0.0181414 -0.0100155
0.0173855 -0.0221098 -0.0311805
-0.00377945 0.00548021 0.0360938
-0.0111494 0.0130391 0.0249444
0.00264562 -0.00774788 0.0192752
-0.00661404 0.0372276 0.0124722
-0.00264562 0.0257003 0.0130391
-0.000377945 0.00434637 0.00434637
-0.00283459 -0.00566918 0.00718096
-0.00434637 0.0394953 0.0160627
-0.00359048 0.0302356 0.00925966
-0.000944863 0.00548021 -0.000566918
0.000377945 -0.00736993 -0.00340151
-0.00907068 -0.013795 0.0041574
-0.00982658 0.0508336 0.0408181
0.00510226 -0.0120942 0.0372276
0.0041574 -0.0100155 -0.0799354
-0.00774788 0.0517785 0.0670853
0.00680301 -0.0400622 -0.0160627
0.00340151 -0.0379835 0.0158737
-0.013984 0.0285349 -0.0154958
-0.00699199 0.0228657 -0.0436527
-0.0185193 -0.00226767 -0.0215429
-0.0228657 0.0062361 0.0168186
0.0255113 -0.0238105 -0.0075589
0.0287238 -0.0306136 -0.0447865
0.0105825 0.0190862 0.0262672
-0.020409 -0.013795 0.0427078
-0.00434637 0.0200311 0.0604712
-0.0096376 0.00566918 0.0444086
-0.0107714 0.0124722 0.00585815
-0.0164406 0.0340151 0.0287238
-0.00604712 0.0585815 0.0234326
-0.00472431 0.0419519 0.0120942
0.000188973 -0.00359048 -0.00604712
0.00170075 -0.0260782 -0.0107714
0.0096376 -0.0153068 0.0368497
Vibration 12
-0.00548021 -0.0126612 0.0124722
-0.00434637 -0.0251334 0.0188973
0.00699199 -0.0321253 0.0160627
0.0177634 -0.0247554 0.0145509
0.0192752 -0.0120942 0.00944863
0.0075589 -0.00585815 0.00944863
0.0228657 -0.0102045 -0.000188973
0.00850377 0.013606 0.00434637
0.00982658 0.034582 0.00075589
-0.0187083 -0.00548021 0.00170075
-0.0122832 -0.00642507 0.00377945
-0.0164406 -0.00396842 -0.00434637
-0.0268341 -0.00283459 -0.0130391
-0.041574 0.0020787 -0.0211649
-0.0377945 0.000188973 -0.013984
-0.0222988 -0.00434637 -0.0166296
0.00774788 -0.0336371 0.00453534
0.0230547 -0.0255113 -0.00113384
0.0211649 -0.00188973 -0.00604712
0.00340151 0.0132281 -0.00510226
-0.0102045 -0.00359048 -0.00699199
-0.00736993 -0.027401 -0.00226767
-0.00151178 0.0515895 -0.00245664
0.034582 -0.0444086 0.0281569
0.00831479 -0.00548021 -0.00925966
0.00340151 0.0196532 0.00718096
0.00302356 0.013795 0.00188973
0.00377945 0.0143619 0.00245664
0.00340151 0.0222988 0.0041574
0.00321253 0.0105825 0.00151178
0.00396842 0.00925966 0.0020787
0.00472431 0.0109604 0.00264562
0.00472431 0.0134171 0.00302356
-0.00245664 0.0559359 0.0158737
-0.0075589 0.00736993 -0.0192752
-0.00566918 -0.0156847 -0.0296687
-0.0132281 -0.0304246 0.0228657
-0.0179524 -0.00396842 -0.0459203
-0.00170075 -0.0096376 0.0122832
-0.0096376 -0.00453534 -0.00245664
-0.0559359 0.0075589 -0.0326923
-0.0487549 0.00283459 -0.0188973
0.0368497 -0.0349599 0.000377945
0.0326923 0.00661404 -0.00850377
-0.0232436 0.00377945 -0.0102045
-0.0185193 -0.0385504 -0.0020787
0.0224877 0.0712427 -0.0115273
-0.00472431 0.0487549 -0.00132281
-0.0260782 0.0676522 0.00736993
0.0589595 -0.0572587 0.0425188
0.00491329 -0.0778567 0.0638727
0.0805023 -0.0268341 0.0100155
0.00245664 0.00907068 0.000944863
0.00396842 0.00718096 0.0020787
0.00510226 0.0105825 0.00321253
0.00510226 0.0153068 0.00377945
0.00793685 -0.0219208 -0.0255113
Vibration 13
-0.0117163 -0.00302356 0.0122832
-0.0120942 -0.00642507 0.0160627
-0.00869274 -0.00793685 -0.0062361
-0.00472431 -0.00661404 -0.0294797
-0.00453534 -0.00302356 -0.0262672
-0.00850377 -0.00113384 -0.00566918
0.000566918 -0.000377945 -0.0438416
-0.00831479 -0.000188973 -0.0020787
-0.00831479 -0.00132281 0.00188973
-0.0096376 -0.00510226 0.0158737
-0.0115273 0.00377945 0.00680301
-0.00283459 -0.00075589 0.00283459
0.00642507 -0.0145509 0.0075589
0.00982658 -0.0245664 0.0171965
0.00151178 -0.0190862 0.0213539
0.0153068 -0.0183303 0.00170075
-0.00869274 -0.0109604 -0.00888171
-0.00850377 -0.0109604 -0.00907068
-0.00944863 -0.0062361 -0.00566918
-0.0109604 -0.00132281 -0.0020787
-0.0102045 -0.00510226 -0.00510226
-0.00907068 -0.0102045 -0.00869274
-0.0130391 0.00944863 0.00585815
-0.0190862 -0.0096376 -0.0315584
0.0075589 -0.00151178 -0.0221098
0.00453534 -0.0309915 -0.0377945
0.0126612 -0.0190862 -0.0115273
0.00982658 0.00699199 -0.00132281
0.00850377 0.0175745 -0.00132281
0.0117163 -0.0213539 -0.0105825
0.0075589 0.00585815 0.00283459
0.00340151 0.0355268 0.0151178
0.00453534 0.0349599 0.0122832
0.00982658 0.0544241 0.0115273
0.0451645 0.0408181 0.115273
0.00340151 -0.00151178 -0.0328812
-0.0145509 -0.00774788 0.0332592
0.0876833 0.0857936 0.257192
-0.0196532 0.0147399 0.00264562
-0.00396842 0.00642507 -0.00434637
0.0192752 -0.0368497 0.0222988
0.00321253 -0.0264562 0.0281569
-0.00812582 -0.0134171 -0.0111494
-0.00907068 -0.00566918 -0.00566918
-0.0105825 -0.00359048 -0.00377945
-0.00925966 -0.0126612 -0.0102045
-0.00434637 0.013984 0.00793685
-0.0196532 0.0105825 0.0075589
-0.0171965 0.0128501 0.00888171
-0.0232436 -0.00264562 -0.0478101
-0.00774788 0.00302356 -0.0519675
-0.0502667 -0.0224877 -0.0194642
0.0156847 -0.0408181 -0.0183303
0.00661404 0.00491329 0.00434637
-0.00075589 0.0593374 0.0257003
0.00245664 0.0576366 0.020976
-0.00151178 0.00075589 -0.0536682
Vibration 14
0.0143619 0.00075589 -0.00283459
0.013984 0.00850377 -0.00113384
0.0075589 0.0130391 0.00340151
0.00075589 0.00888171 0
0.000188973 0.000566918 -0.00132281
0.00736993 -0.00283459 0.000566918
-0.00869274 -0.00377945 -0.00472431
0.00699199 -0.00850377 0.0100155
0.00680301 -0.0122832 0.0217318
0.0109604 0.00321253 -0.00661404
0.0211649 -0.0075589 0.00604712
0.00340151 0.0020787 -0.000566918
-0.0224877 0.0219208 -0.0187083
-0.0340151 0.0334482 -0.0317474
-0.0166296 0.0230547 -0.0255113
-0.0427078 0.0326923 -0.0268341
0.00736993 0.0185193 0.00925966
0.00548021 0.0181414 0.0102045
0.00699199 0.00888171 0.00642507
0.0111494 0.000377945 0.00151178
0.0117163 0.00869274 0.00680301
0.0100155 0.0179524 0.0109604
0.0151178 -0.020787 -0.0109604
0.0442196 -0.0102045 0.0489439
-0.0105825 -0.00302356 -0.00453534
-0.00793685 -0.0349599 -0.0185193
-0.0075589 -0.0253223 -0.0105825
-0.0107714 -0.00812582 -0.0041574
-0.00888171 -0.013606 -0.0075589
-0.0062361 -0.0302356 -0.0130391
-0.00944863 -0.0149288 -0.00699199
-0.0143619 0.0075589 0.0020787
-0.0149288 0.0100155 0.00302356
-0.00302356 -0.0328812 -0.0143619
0.0164406 -0.00188973 0.0523454
-0.0113384 -0.00340151 -0.00680301
0.0192752 0.0119053 -0.00188973
0.0377945 0.0211649 0.113762
0.0428968 -0.0238105 0.0211649
0.0107714 -0.00585815 0.00869274
-0.0580146 0.0517785 -0.048377
-0.0249444 0.0315584 -0.0351489
0.00283459 0.0226767 0.0128501
0.00529123 0.0062361 0.00604712
0.0134171 0.00661404 0.0062361
0.0113384 0.0230547 0.0134171
-0.00151178 -0.0325033 -0.00831479
0.0245664 -0.0171965 -0.013984
0.0251334 -0.0308025 -0.020976
0.0563138 -0.0211649 0.068975
0.0143619 -0.0425188 0.11395
0.122076 0.00245664 0.0170075
-0.00188973 -0.0451645 -0.0190862
-0.00831479 -0.0198421 -0.00907068
-0.0173855 0.0222988 0.00774788
-0.0179524 0.0253223 0.00907068
-0.00982658 -0.00434637 -0.00491329
Vibration 15
0 0.0020787 0.0179524
0.000188973 -0.00491329 0.0194642
0.00699199 -0.00869274 0.00075589
0.0124722 -0.00529123 -0.00736993
0.0122832 0.00132281 0.000377945
0.0062361 0.00472431 0.00661404
0.0128501 0.00132281 0.0103935
0.00699199 0.0183303 -0.00453534
0.00812582 0.0359048 -0.0168186
-0.00302356 0.00396842 0.0175745
-0.00245664 0.0111494 0.0107714
0.000188973 0.0102045 0.00302356
0.00245664 0.00170075 0.00283459
0.00132281 -0.00566918 0.00907068
-0.00170075 -0.00340151 0.0160627
0.00680301 0.000377945 -0.0062361
0.00812582 -0.0164406 -0.00736993
0.0100155 -0.0164406 -0.00850377
0.00888171 -0.0096376 -0.00434637
0.00642507 -0.00226767 0.00075589
0.00699199 -0.0120942 -0.00604712
0.00812582 -0.0190862 -0.0100155
0.00226767 0.0196532 0.0164406
0.00264562 -0.00831479 -0.0141729
0.0132281 0.00302356 0.0213539
-0.0298577 0.00226767 -0.0599043
-0.00925966 -0.0211649 -0.0313695
-0.00132281 0.0185193 -0.0168186
-0.000188973 -0.00132281 -0.0185193
-0.0117163 -0.0561249 -0.0317474
-0.0115273 -0.0289128 -0.0096376
-0.0111494 0.0381725 0.0173855
-0.00661404 0.0574477 0.00982658
-0.00888171 -0.0379835 -0.0308025
-0.0678412 0.0255113 -0.0132281
0.0317474 -0.000566918 0.089384
-0.00491329 -0.00774788 0.0311805