[Molden Format]
[FREQ]
-692.1
16.4
19.9
21.7
23.8
27.3
30.1
38.9
53.2
56.5
64.3
80.2
94.9
104.6
108.2
121.3
131.9
160.1
168.6
175.3
188.6
195.7
217.8
229.2
238.0
247.7
263.3
274.7
282.8
309.9
321.9
325.9
332.4
340.8
350.6
354.3
385.3
386.6
423.9
446.7
464.7
477.2
485.7
494.8
516.0
534.5
543.3
553.0
568.5
590.1
612.9
616.7
617.8
629.6
643.8
646.4
665.5
675.7
692.4
715.2
731.8
745.3
779.1
787.2
813.1
830.6
837.7
852.2
866.4
879.9
881.6
895.3
899.9
940.4
956.8
967.2
974.5
994.5
1006.7
1007.7
1009.4
1016.0
1016.3
1032.3
1047.1
1056.0
1058.6
1071.2
1080.7
1087.8
1126.1
1155.8
1171.8
1175.6
1178.9
1184.0
1184.9
1207.0
1208.4
1238.2
1260.6
1261.1
1269.0
1277.3
1283.5
1287.2
1288.0
1296.0
1303.3
1316.8
1322.1
1331.9
1338.0
1339.2
1347.3
1354.6
1365.1
1366.9
1375.9
1392.2
1399.0
1418.4
1431.3
1502.2
1521.3
1528.5
1538.0
1549.0
1557.9
1566.0
1597.8
1606.4
1628.7
1670.9
1694.5
1698.9
1699.8
1700.8
1708.9
1710.3
1841.6
1866.7
1887.4
2446.5
2642.2
2651.7
2654.6
2667.2
2673.0
2680.3
2734.4
2744.1
2745.2
2746.1
2747.4
2748.1
2751.4
2754.7
2762.7
2764.6
2765.3
2766.0
2766.8
2771.4
2779.4
       
[FR-COORD]
C -1.76727 -2.20928 1.57414
C 0.865306 -2.20928 1.57414
C 2.18358 0.106203 1.57414
N 0.96754 2.33249 1.44186
C -1.59512 2.2998 1.10228
C -3.09273 0.0925966 1.45452
N -2.66565 4.89193 1.52406
C -5.75025 0.198988 1.51291
N -7.93534 0.304624 1.62214
C -3.13354 -4.61528 1.70189
C -2.89695 -6.33927 -0.295931
C -4.18442 -8.61621 -0.226578
C -5.71302 -9.15856 1.8782
C -5.96095 -7.4665 3.88509
C -4.66158 -5.18068 3.77303
O -6.84837 -11.4525 1.71247
C 4.95581 0.21146 1.7206
C 6.28088 -1.52595 3.20592
C 8.90401 -1.43676 3.30419
C 10.2281 0.385504 1.91996
C 8.90118 2.12972 0.449188
C 6.27559 2.04903 0.357347
C 13.0406 0.463739 2.04449
C -8.56934 -12.1194 3.6638
C -2.65015 6.06262 -1.19695
C -0.0765339 7.23954 -1.87801
C 1.46019 5.69167 -3.56667
C 0.583358 3.24617 -4.08464
C -1.80885 2.543 -2.8344
C 3.75772 6.52598 -4.54441
C 5.18503 4.88437 -6.03163
C 4.32143 2.44228 -6.52749
C 2.01256 1.61118 -5.55863
O -3.39735 1.16218 -3.61429
O 0.439739 9.25985 -0.986059
O -4.69162 6.50897 -2.04109
H 1.89936 -3.98109 1.61024
H -1.50762 5.89802 2.76335
H -1.71398 -5.86458 -1.91883
H -4.04779 -9.97454 -1.76217
H -7.14543 -7.88677 5.50288
H -4.84696 -3.8267 5.31542
H 5.25835 -2.94136 4.30045
H 9.93259 -2.78772 4.46297
H 9.91539 3.55968 -0.622476
H 5.23227 3.42362 -0.781024
H 13.6845 1.14725 3.90153
H 13.8759 1.71549 0.615484
H 13.8772 -1.41786 1.76349
H -9.24851 -13.9766 3.03036
H -10.1371 -10.7722 3.76074
H -7.59613 -12.2868 5.47983
H 4.4246 8.43347 -4.13604
H 6.98329 5.51025 -6.80849
H 5.4581 1.1722 -7.68514
H 1.323 -0.290829 -5.95056
H -4.49717 4.82069 2.23536

[FR-NORM-COORD]
Vibration 1
-0.00340151 -0.00869274 -0.0151178
0.00188973 0.00491329 0.00529123
0.013795 -0.0198421 -0.0173855
-0.0292908 -0.00718096 0.013795
0.00718096 0.0126612 0.353946
0.0215429 0.0170075 0.000188973
0.00831479 -0.0222988 0.0298577
-0.00642507 0.0062361 -0.00245664
-0.000188973 -0.0062361 -0.00170075
-0.000566918 0.00075589 -0.00434637
-0.000377945 -0.00245664 -0.00302356
0.00132281 -0.000188973 -0.000944863
-0.000944863 -0.00264562 -0.000188973
0.00132281 0.00188973 -0.000188973
-0.000188973 0.000566918 -0.00132281
0.00132281 0.00283459 0.000566918
-0.000188973 -0.00340151 -0.00925966
0.000377945 -0.00132281 -0.00170075
-0.00151178 -0.000188973 0.000566918
0.000566918 0.00075589 -0.000377945
-0.00075589 0.00075589 0.000377945
-0.000188973 0.00226767 -0.00245664
-0.00132281 -0.000188973 -0.000377945
-0.000188973 -0.000188973 0.000566918
0.0585815 -0.264751 -0.199555
-0.0351489 -0.0156847 0.00736993
0.0257003 0.00264562 -0.00510226
0.0251334 -0.00188973 -0.020976
-0.13058 0.301978 -0.170453
0.0096376 0.00302356 -0.00075589
0.00661404 -0.00453534 -0.0041574
0.0111494 -0.00132281 -0.0041574
0.00982658 -0.00585815 -0.00642507
0.0319364 -0.0187083 0.0255113
-0.00340151 -0.0130391 0.000188973
-0.0154958 0.0334482 0.0232436
-0.00132281 -0.0143619 0.0215429
-0.0655735 0.109226 -0.0287238
-0.00793685 -0.00226767 -0.0117163
-0.00113384 -0.00170075 -0.00302356
0.00132281 0 0.00113384
-0.00132281 -0.00510226 0.00340151
0.00869274 -0.000944863 0.00302356
-0.000377945 0.000944863 0.00188973
0 0.0020787 -0.00283459
0.00170075 0.00472431 -0.0128501
0.00188973 0 -0.000566918
0.000944863 0 -0.000944863
0.00113384 0 0
0.00170075 -0.00113384 -0.00321253
-0.0020787 -0.00226767 0
-0.00113384 -0.00264562 0.00075589
0.00548021 0.00434637 -0.0075589
0 0.000566918 -0.0119053
0.00566918 0.00396842 -0.0096376
-0.00585815 0.00680301 -0.0194642
-0.0258892 0.062361 -0.0627389
Vibration 2
0.00132281 -0.00170075 0.00396842
0.00188973 -0.000188973 0.0041574
0.00151178 -0.000377945 0.000944863
0.00151178 -0.000377945 0.00113384
0.00132281 -0.00075589 0.00359048
0.00151178 -0.00132281 0.00245664
0.00151178 -0.00113384 0.00718096
0.00151178 0.00132281 -0.00245664
0.00132281 0.00472431 -0.00642507
0.00453534 -0.00283459 0.00548021
0.0810692 -0.0444086 0.0500777
0.0852266 -0.0466762 0.0504557
0.0111494 -0.00812582 0.00642507
-0.0653845 0.0325033 -0.0370386
-0.0678412 0.0336371 -0.0374166
0.0234326 -0.0143619 0.0126612
0.00188973 -0.000566918 -0.00283459
0.00359048 0.00321253 -0.000188973
0.00377945 0.00264562 -0.00453534
0.0020787 -0.00151178 -0.0117163
0.000377945 -0.00529123 -0.0143619
0.000188973 -0.00453534 -0.00982658
0.00245664 -0.00321253 -0.0171965
-0.0461093 0.0217318 -0.0360938
0.000944863 0.00226767 0.00869274
0.00151178 0.000566918 0.00812582
-0.00283459 0.00170075 0.00283459
-0.0062361 0.00340151 0.00075589
-0.00472431 0.0041574 0.00377945
-0.00377945 0.000944863 0
-0.00831479 0.00188973 -0.00548021
-0.0117163 0.00359048 -0.00774788
-0.0107714 0.0041574 -0.00453534
-0.0075589 0.00680301 0.00529123
0.00529123 -0.0020787 0.0115273
0.000566918 0.00642507 0.0113384
0.00264562 0.000377945 0.00736993
0.00188973 -0.00283459 0.00812582
0.13795 -0.0748331 0.082581
0.144942 -0.0780457 0.0835259
-0.122265 0.0625499 -0.0708647
-0.126801 0.0640617 -0.0708647
0.00472431 0.00661404 0.00548021
0.00529123 0.00566918 -0.00245664
-0.000944863 -0.00850377 -0.0200311
-0.00113384 -0.00718096 -0.0119053
0.00718096 -0.020976 -0.0122832
-0.000188973 0.0096376 -0.00736993
0.000566918 -0.00113384 -0.0366607
-0.0179524 0.00661404 -0.0221098
-0.0532903 0.0194642 -0.121887
-0.112061 0.062361 0.00302356
-0.000944863 -0.000377945 0.00188973
-0.00925966 0.00132281 -0.00793685
-0.0153068 0.00434637 -0.0120942
-0.0134171 0.00548021 -0.00604712
0.00170075 -0.00188973 0.0075589
Vibration 3
-0.00510226 -0.00812582 -0.0111494
-0.00510226 -0.0102045 -0.00680301
-0.00321253 -0.0111494 -0.00642507
-0.00132281 -0.0100155 -0.00548021
-0.000566918 -0.00793685 -0.0117163
-0.00321253 -0.0075589 -0.0192752
-0.00226767 -0.00944863 -0.00642507
-0.00340151 -0.00680301 -0.0326923
-0.00396842 -0.00718096 -0.0447865
-0.00699199 -0.00642507 -0.00075589
-0.00888171 -0.0177634 0.00888171
-0.00869274 -0.0175745 0.0234326
-0.00642507 -0.00566918 0.0281569
-0.00548021 0.0062361 0.0181414
-0.00585815 0.00566918 0.00359048
-0.00529123 -0.00736993 0.0432747
-0.00302356 -0.0141729 -0.0075589
-0.00359048 -0.0192752 -0.0130391
-0.00321253 -0.0241885 -0.0173855
-0.00245664 -0.0238105 -0.0158737
-0.00188973 -0.0177634 -0.00925966
-0.00226767 -0.0130391 -0.00510226
-0.0020787 -0.0291018 -0.0213539
-0.000566918 0.00226767 0.0510226
-0.0103935 -0.0062361 -0.00548021
-0.0192752 0.0171965 0.00245664
0.00132281 0.0304246 0.0096376
0.0219208 0.0247554 0.00151178
0.020598 0.00434637 -0.0119053
0.00075589 0.048566 0.0238105
0.020787 0.0614161 0.0287238
0.0406291 0.0563138 0.0194642
0.041385 0.0379835 0.00585815
0.0355268 -0.0062361 -0.0236216
-0.041196 0.0222988 0.00377945
-0.0134171 -0.0228657 -0.00699199
-0.00680301 -0.0109604 -0.00321253
0 -0.00982658 -0.00812582
-0.0103935 -0.0272121 0.00510226
-0.00982658 -0.0266451 0.0311805
-0.00434637 0.0158737 0.0213539
-0.00472431 0.0147399 -0.00434637
-0.00396842 -0.0198421 -0.0141729
-0.00359048 -0.0285349 -0.0219208
-0.00113384 -0.0170075 -0.00774788
-0.00170075 -0.00869274 -0.000377945
0.00245664 -0.0202201 -0.0260782
-0.00188973 -0.0387394 -0.0296687
-0.00604712 -0.0323143 -0.0122832
0.00132281 -0.00283459 0.0640617
-0.00245664 0.000566918 0.0451645
0.00302356 0.0154958 0.0502667
-0.0151178 0.0527234 0.0306136
0.020409 0.075589 0.0396842
0.0555579 0.0665184 0.0228657
0.0572587 0.0336371 -0.00113384
-0.000188973 -0.0122832 -0.00151178
Vibration 4
-0.00264562 0.00113384 -0.0062361
-0.00264562 -0.000377945 -0.0041574
-0.00188973 -0.00113384 -0.00491329
0.00075589 -0.000188973 -0.00680301
0.000188973 0.00170075 -0.00434637
-0.000944863 0.0020787 -0.00680301
0.00188973 0.00151178 0.00226767
-0.000944863 0.00302356 -0.00850377
-0.000944863 0.00359048 -0.00982658
-0.0020787 0.000944863 -0.00529123
-0.00075589 -0.000377945 -0.00434637
0.00529123 -0.00359048 -0.000188973
0.0102045 -0.00566918 0.00283459
0.00680301 -0.00340151 0.000377945
0.000566918 -0.000188973 -0.00377945
0.0183303 -0.0102045 0.00793685
-0.00188973 -0.00604712 0.000377945
-0.013984 0.0215429 0.0428968
-0.013795 0.0153068 0.0512116
-0.00302356 -0.0198421 0.0156847
0.00812582 -0.0476211 -0.027779
0.00831479 -0.0400622 -0.0351489
-0.00340151 -0.020787 0.02759
0.0283459 -0.0162516 0.0147399
0.00377945 0.00907068 0.00566918
0.0062361 0.00491329 0.00812582
-0.00170075 0.00831479 -0.00245664
-0.00869274 0.0120942 -0.00888171
-0.0062361 0.0124722 -0.00396842
-0.00340151 0.00736993 -0.00680301
-0.0122832 0.0105825 -0.0190862
-0.0196532 0.0147399 -0.0266451
-0.0175745 0.0153068 -0.0211649
-0.0096376 0.0156847 -0.00302356
0.013984 -0.00113384 0.0170075
0.00434637 0.0173855 0.00831479
-0.00283459 -0.000566918 -0.00170075
0.00226767 -0.00264562 0.00529123
-0.00396842 0.00113384 -0.0062361
0.00680301 -0.00491329 0.00113384
0.00925966 -0.00453534 0.0020787
-0.00151178 0.00132281 -0.00529123
-0.0234326 0.0487549 0.069164
-0.0230547 0.0377945 0.0856046
0.0173855 -0.0750221 -0.0555579
0.0164406 -0.0610381 -0.0676522
-0.0170075 0.156469 -0.0326923
0.0103935 -0.160249 -0.0865495
-0.00491329 -0.0491329 0.215618
0.0368497 -0.0213539 0.0202201
0.0211649 -0.0249444 0.0170075
0.0349599 -0.00736993 0.0120942
0.00226767 0.0041574 -0.00075589
-0.013984 0.0102045 -0.0230547
-0.0270231 0.0173855 -0.0368497
-0.0230547 0.0183303 -0.0266451
0.00170075 0.000944863 0.00151178
Vibration 5
-0.0130391 0.00151178 -0.0173855
-0.0128501 0.000944863 -0.0168186
-0.0119053 0.000377945 -0.0103935
-0.0122832 0.00075589 -0.00566918
-0.0115273 0.00226767 -0.00982658
-0.0126612 0.00151178 -0.0177634
-0.0109604 0.00170075 -0.00396842
-0.0126612 0.00170075 -0.0245664
-0.0130391 0.00170075 -0.0309915
-0.0103935 0.000377945 -0.0113384
-0.00491329 -0.00869274 -0.00283459
0.00661404 -0.0147399 0.0109604
0.0128501 -0.0119053 0.0162516
0.00396842 -0.000944863 0.00585815
-0.00774788 0.00510226 -0.00812582
0.0285349 -0.020787 0.0323143
-0.0122832 0.000566918 -0.0062361
-0.0109604 -0.0255113 -0.0376055
-0.0111494 -0.0245664 -0.0338261
-0.0119053 0.00340151 0.0020787
-0.0128501 0.0294797 0.0338261
-0.0126612 0.027401 0.0294797
-0.0122832 0.00548021 0.00661404
0.0430858 -0.0243775 0.0438416
0.0151178 0.0175745 0.00321253
0.0296687 -0.00377945 0.0213539
0.0162516 -0.00510226 0.0100155
-0.0041574 0.00529123 -0.00491329
-0.0103935 0.0183303 -0.00925966
0.0226767 -0.0179524 0.0145509
0.00869274 -0.020598 0.00396842
-0.0111494 -0.0103935 -0.0103935
-0.0179524 0.00264562 -0.0151178
-0.020409 0.0334482 -0.0153068
0.0498888 -0.0177634 0.041385
0.0238105 0.0434637 -0.00434637
-0.013984 0.000188973 -0.0200311
-0.020598 -0.00699199 0.0119053
-0.00888171 -0.0115273 -0.00661404
0.0119053 -0.0224877 0.0181414
0.00661404 0.00264562 0.00869274
-0.013984 0.0130391 -0.0156847
-0.00944863 -0.0472432 -0.0642507
-0.0105825 -0.0453534 -0.0587705
-0.013795 0.0514005 0.062361
-0.0130391 0.0472432 0.0534792
-0.0164406 -0.00680301 0.0128501
-0.0119053 0.0171965 0.0170075
-0.00888171 0.00888171 -0.00548021
0.0589595 -0.0355268 0.0593374
0.0302356 -0.0391173 0.0406291
0.0515895 -0.00226767 0.041385
0.0385504 -0.0258892 0.0258892
0.013795 -0.0306136 0.00718096
-0.0217318 -0.0128501 -0.0181414
-0.0336371 0.0105825 -0.0264562
-0.0175745 0.00075589 -0.020976
Vibration 6
-0.00245664 0.00491329 0.00113384
-0.00245664 0.00321253 -0.00396842
-0.000188973 0.0020787 -0.000944863
0.00075589 0.00302356 0.00302356
0.000377945 0.00453534 0.00377945
-0.00113384 0.00585815 0.00718096
0.00302356 0.00604712 -0.000188973
-0.000566918 0.00907068 0.0156847
-0.000188973 0.0124722 0.0232436
-0.00245664 0.00472431 -0.00113384
0.00585815 0.00302356 0.00113384
0.00831479 0.00170075 -0.000944863
0.00226767 0.00170075 -0.00510226
-0.00680301 0.00377945 -0.00793685
-0.00907068 0.00510226 -0.00585815
0.00642507 -0.000188973 -0.0062361
-0.000188973 0 -0.00245664
0.00188973 -0.0232436 -0.0315584
0.00226767 -0.0264562 -0.034582
0.000944863 -0.00604712 -0.00793685
-0.00113384 0.0185193 0.0221098
-0.000944863 0.020976 0.0243775
0.000377945 0.00340151 -0.00548021
0.00302356 -0.00170075 -0.00982658
-0.00472431 -0.00170075 -0.00396842
-0.00869274 0.0020787 -0.0120942
-0.00245664 -0.00340151 -0.00151178
0.00226767 -0.00661404 0.00661404
0.000566918 -0.00472431 0.00377945
-0.000566918 -0.00472431 0.00170075
0.00661404 -0.00982658 0.0141729
0.0115273 -0.0134171 0.0228657
0.00925966 -0.0117163 0.0188973
0.00113384 -0.00566918 0.00453534
-0.0158737 0.00982658 -0.0253223
-0.00736993 -0.00944863 -0.00151178
-0.0041574 0.0020787 -0.0100155
0.00718096 0.00888171 -0.00642507
0.0103935 0.00283459 0.00434637
0.0147399 0.000377945 0.000944863
-0.0119053 0.0041574 -0.0117163
-0.0158737 0.00642507 -0.00793685
0.00359048 -0.0398732 -0.0512116
0.00264562 -0.0453534 -0.0566918
-0.00132281 0.0355268 0.0444086
-0.0020787 0.0389284 0.0470542
-0.0158737 0.296309 -0.10677
0.00831479 -0.219208 -0.196154
0.00774788 -0.0374166 0.297065
0.00944863 -0.00434637 -0.00907068
-0.000566918 -0.00548021 -0.0158737
-0.00132281 0.00321253 -0.00699199
-0.00453534 -0.00188973 -0.00529123
0.00831479 -0.0111494 0.0171965
0.0173855 -0.0173855 0.0330702
0.0132281 -0.0145509 0.0253223
0.00510226 0.00888171 0.00566918
Vibration 7
-0.0145509 0.0185193 0.00718096
-0.0143619 0.0151178 0.00907068
-0.0105825 0.0126612 0.0105825
-0.00642507 0.0145509 0.00831479
-0.00642507 0.0175745 0.00566918
-0.0107714 0.020598 0.00944863
-0.0020787 0.020787 -0.00377945
-0.0103935 0.0262672 0.0141729
-0.00982658 0.0313695 0.0188973
-0.0115273 0.0164406 -0.00075589
0.00548021 0.0194642 -0.00170075
0.0232436 0.0096376 -0.00604712
0.0236216 -0.00377945 -0.00907068
0.00113384 -0.00396842 -0.0117163
-0.0164406 0.00642507 -0.0075589
0.048188 -0.0158737 -0.0100155
-0.0102045 0.00283459 0.00925966
-0.0170075 -0.000377945 0.0120942
-0.0162516 -0.0183303 0.0020787
-0.00850377 -0.0332592 -0.0103935
-0.00170075 -0.027779 -0.00982658
-0.00283459 -0.00944863 0.000377945
-0.00699199 -0.0599043 -0.0270231
0.061794 -0.0391173 -0.00604712
-0.00566918 0.00888171 -0.00925966
-0.00793685 0.0096376 -0.0171965
-0.00170075 0.000566918 -0.00302356
0.0020787 -0.00340151 0.00850377
-0.000944863 0.0020787 0.00510226
0.00113384 -0.00359048 -0.000377945
0.00793685 -0.0117163 0.0151178
0.0119053 -0.0158737 0.02759
0.00907068 -0.0115273 0.0241885
-0.000566918 0.00113384 0.00642507
-0.0145509 0.0187083 -0.0336371
-0.00680301 0.00113384 -0.0102045
-0.0170075 0.0134171 0.00888171
0.00188973 0.0245664 -0.0103935
0.00642507 0.0291018 0.00170075
0.0379835 0.0109604 -0.00585815
-0.0020787 -0.0124722 -0.0162516
-0.0330702 0.00566918 -0.00869274
-0.0230547 0.0109604 0.020976
-0.020976 -0.0211649 0.00302356
0.00396842 -0.0379835 -0.0181414
0.00245664 -0.00548021 0.000377945
0.0145509 -0.159871 0.0020787
-0.00718096 0.00472431 0.0298577
-0.0268341 -0.0538572 -0.129446
0.0882502 -0.0498888 -0.00264562
0.0421409 -0.062172 -0.00491329
0.0672742 -0.0224877 -0.00736993
-0.0020787 -0.000566918 -0.0100155
0.0100155 -0.0151178 0.0175745
0.0173855 -0.0222988 0.0400622
0.0120942 -0.0145509 0.0336371
-0.00075589 0.0266451 0
Vibration 8
0.00396842 -0.00321253 -0.0239995
0.00396842 -0.0102045 -0.041574
0.0100155 -0.013606 -0.0319364
0.0154958 -0.00982658 -0.0202201
0.013795 -0.00188973 -0.0075589
0.00982658 0.00132281 -0.00321253
0.0241885 0.000188973 0.00529123
0.0109604 0.0115273 0.0255113
0.0126612 0.020976 0.0514005
0 -0.000566918 -0.0185193
0.0020787 -0.0105825 -0.0096376
0.00264562 -0.0107714 0.00075589
0.00132281 -0.000944863 0.00226767
-0.00283459 0.0102045 -0.0075589
-0.00359048 0.00982658 -0.0181414
0.00434637 -0.00340151 0.0147399
0.0096376 -0.0190862 -0.0192752
-0.00302356 -0.0321253 -0.0228657
-0.00453534 -0.0270231 0.00812582
0.00680301 -0.00869274 0.0430858
0.0198421 -0.00075589 0.0408181
0.020787 -0.00642507 0.00888171
0.00472431 -0.000188973 0.0833369
0.00869274 0.00321253 0.020598
-0.0062361 0.000188973 0.00434637
-0.0173855 0.0111494 -0.0183303
-0.0154958 0.00982658 -0.0151178
-0.0130391 0.00812582 -0.0117163
-0.00888171 0.00661404 -0.00604712
-0.0158737 0.0102045 -0.0156847
-0.013984 0.00944863 -0.0128501
-0.0124722 0.00831479 -0.0109604
-0.0119053 0.00774788 -0.0103935
-0.0134171 0.0096376 -0.00188973
-0.0257003 0.020976 -0.0355268
-0.0164406 -0.00661404 0.0253223
-0.000377945 -0.0130391 -0.0582036
0.041196 -0.00264562 -0.00831479
0.00340151 -0.0187083 -0.0109604
0.00491329 -0.0187083 0.00793685
-0.00529123 0.0187083 -0.00718096
-0.00642507 0.0179524 -0.0255113
-0.0120942 -0.0449755 -0.047999
-0.0145509 -0.0360938 0.00642507
0.0287238 0.0107714 0.0646286
0.0306136 0.000188973 0.00774788
-0.0217318 -0.0746442 0.119809
0.0183303 0.0625499 0.146076
0.0156847 0.0145509 0.0158737
0.013795 -0.00283459 0.0326923
0.00453534 -0.00113384 0.013984
0.0109604 0.0171965 0.020787
-0.0175745 0.0113384 -0.0179524
-0.013984 0.00944863 -0.0124722
-0.0113384 0.00812582 -0.00944863
-0.0103935 0.00680301 -0.00831479
0.0326923 0.0041574 0.027401
Vibration 9
0.0130391 -0.00548021 -0.020976
0.0128501 -0.00151178 -0.0228657
0.00812582 0.000944863 -0.020409
0.0041574 -0.000944863 -0.0154958
0.00321253 -0.00283459 -0.0096376
0.00869274 -0.00774788 -0.0187083
0.00359048 -0.00548021 0.00736993
0.00793685 -0.0164406 -0.0279679
0.00699199 -0.0268341 -0.0383614
0.0149288 -0.00604712 -0.0143619
0.00566918 -0.0109604 -0.0109604
0.000188973 -0.00793685 -0.0020787
0.00434637 0.00075589 0.00321253
0.0170075 0.0041574 0.00188973
0.0222988 0.000566918 -0.00699199
-0.00548021 0.00510226 0.0109604
0.00812582 0.00340151 -0.0168186
0.00491329 0.0187083 0.00377945
0.00472431 0.0200311 0.00888171
0.00793685 0.00510226 -0.00793685
0.0109604 -0.0102045 -0.0285349
0.0109604 -0.0102045 -0.0319364
0.00774788 0.00510226 -0.00377945
-0.0145509 0.0232436 0.00925966
-0.0113384 0.0113384 0.0130391
-0.0147399 0.00944863 -0.00585815
-0.00831479 -0.0062361 0.013795
-0.0190862 -0.0020787 0.0115273
-0.0332592 0.0221098 -0.00604712
0.0115273 -0.0281569 0.041196
0.0217318 -0.0474321 0.0723765
0.0119053 -0.0445975 0.0740773
-0.0096376 -0.0213539 0.0419519
-0.0574477 0.0563138 -0.0166296
-0.0221098 0.0241885 -0.034582
-0.0177634 0.0279679 0.0370386
0.0162516 0.000377945 -0.0245664
0.0075589 -0.0113384 0.00812582
0.00188973 -0.0175745 -0.0154958
-0.00793685 -0.0115273 0.000377945
0.0226767 0.0096376 0.00736993
0.0317474 0.00359048 -0.00850377
0.00245664 0.0298577 0.0158737
0.00226767 0.0325033 0.0257003
0.0132281 -0.0215429 -0.0417629
0.0130391 -0.020598 -0.0462983
0.00548021 0.00453534 -0.00283459
0.0100155 0.00510226 -0.00226767
0.00736993 0.00491329 -0.00302356
-0.0287238 0.02759 0.0117163
-0.00377945 0.0360938 0.00396842
-0.0188973 0.0187083 0.0111494
0.0192752 -0.0306136 0.0400622
0.0377945 -0.0651955 0.0956201
0.0213539 -0.0600933 0.100344
-0.0179524 -0.0181414 0.0417629
0.00642507 -0.0105825 0.0145509
Vibration 10
-0.013795 -0.00585815 -0.013795
-0.0132281 -0.0111494 -0.0281569
-0.00925966 -0.013606 -0.0211649
-0.00491329 -0.0105825 -0.00680301
-0.00566918 -0.00472431 -0.00188973
-0.00888171 -0.00151178 0.00491329
0.000566918 -0.00226767 -0.00283459
-0.00718096 0.0103935 0.0444086
-0.00472431 0.0247554 0.0831479
-0.0183303 -0.00321253 -0.0134171
-0.0132281 -0.0100155 -0.00718096
-0.0111494 -0.0109604 -0.00245664
-0.0145509 -0.0062361 -0.00377945
-0.0247554 0.00264562 -0.0124722
-0.0264562 0.00340151 -0.0173855
-0.00736993 -0.0102045 0.00396842
-0.00888171 -0.0103935 -0.02759
-0.0020787 0.013984 -0.0062361
-0.00283459 0.0357158 0.00226767
-0.0115273 0.0309915 -0.0124722
-0.0185193 0 -0.0427078
-0.0173855 -0.0200311 -0.0491329
-0.0130391 0.0608492 0.00434637
0.0134171 -0.0202201 0.0190862
0.0103935 -0.00245664 -0.00321253
0.0143619 -0.00472431 0.00869274
0.0179524 -0.00321253 0.0107714
0.0200311 -0.00340151 0.00793685
0.013795 -0.00434637 -0.00264562
0.020976 -0.0020787 0.0181414
0.02759 -0.00188973 0.0245664
0.0309915 -0.00302356 0.0236216
0.0272121 -0.00340151 0.0147399
0.0190862 -0.00548021 -0.0113384
0.0153068 -0.00869274 0.0170075
0.0141729 -0.00264562 -0.0115273
-0.0153068 -0.0126612 -0.041574
0.00113384 -0.00585815 -0.000377945
-0.00944863 -0.0147399 -0.00604712
-0.00566918 -0.0162516 0.00264562
-0.0308025 0.00888171 -0.0153068
-0.0336371 0.00944863 -0.0232436
0.0041574 0.0183303 0.00472431
0.00340151 0.0574477 0.0219208
-0.0255113 -0.00699199 -0.0585815
-0.0236216 -0.0408181 -0.0682191
-0.0311805 0.061794 0.0102045
-0.0177634 0.0744552 0.0134171
0.00831479 0.0704868 0.00321253
0.0287238 -0.0300466 0.0317474
0.000188973 -0.0360938 0.0238105
0.027401 -0.0020787 0.0132281
0.0181414 -0.00132281 0.0198421
0.0298577 -0.00132281 0.0304246
0.0364717 -0.00359048 0.0296687
0.0298577 -0.00396842 0.0126612
-0.00113384 0.00321253 -0.00661404
Vibration 11
0.00642507 0.00264562 -0.0154958
0.00548021 0.0154958 -0.0281569
-0.00604712 0.0228657 -0.0164406
-0.0153068 0.0171965 -0.0128501
-0.0162516 0.00377945 -0.013606
-0.00434637 -0.00245664 -0.00340151
-0.0323143 -0.00188973 -0.0202201
-0.00377945 -0.0151178 0.0364717
-0.00226767 -0.0264562 0.0763449
0.0190862 -0.00359048 -0.00529123
0.0126612 -0.00548021 -0.00396842
0.0147399 -0.00661404 0.00434637
0.0222988 -0.0041574 0.0103935
0.0374166 -0.00642507 0.0143619
0.0359048 -0.00642507 0.00661404
0.0149288 -0.000944863 0.0153068
-0.00699199 0.0224877 -0.00226767
-0.0219208 0.0143619 0.0020787
-0.0217318 -0.00680301 0.00453534
-0.00642507 -0.0188973 0.00321253
0.00831479 -0.00434637 0.00736993
0.00736993 0.0168186 0.00491329
-0.00529123 -0.0502667 -0.00302356
-0.0410071 0.0402512 -0.0196532
-0.0096376 0.00113384 -0.0187083
-0.000188973 -0.00472431 0.00718096
0.00245664 -0.000377945 0.00548021
-0.00075589 0.00340151 -0.00736993
-0.00510226 0.00075589 -0.0154958
0.00793685 -0.000566918 0.0185193
0.0100155 0.00340151 0.0158737
0.00566918 0.00812582 0.000377945
0.000566918 0.00831479 -0.0113384
-0.000566918 -0.00113384 -0.0211649
0.00396842 -0.0149288 0.027401
-0.00132281 0.00604712 -0.0359048
0.0147399 0.020598 -0.041574
-0.0495108 0.00226767 -0.00774788
0.00396842 -0.00566918 -0.0103935
0.00812582 -0.00793685 0.00472431
0.0500777 -0.00888171 0.0230547
0.0468652 -0.0075589 0.00907068
-0.034204 0.0228657 0.00188973
-0.0334482 -0.0145509 0.00585815
0.020598 -0.0103935 0.0109604
0.0185193 0.0268341 0.00699199
0.00680301 -0.0527234 -0.0062361
0.00585815 -0.0636838 -0.00831479
-0.0272121 -0.0606602 0
-0.0674632 0.0532903 -0.0296687
-0.0143619 0.0735103 -0.0542351
-0.0814472 0.0232436 0.000566918
0.0107714 -0.0041574 0.0304246
0.0143619 0.00302356 0.0258892
0.00661404 0.0113384 -0.00226767
-0.00188973 0.0115273 -0.0228657
-0.0393063 -0.0105825 -0.0389284
Vibration 12
-0.0194642 0.00188973 0.0162516
-0.0188973 -0.00982658 0.0173855
-0.00812582 -0.0170075 0.000377945
0.00113384 -0.0120942 -0.00529123
0.00113384 0 -0.000566918
-0.00925966 0.00661404 0.00321253
0.0166296 0.00661404 0.00170075
-0.00888171 0.0202201 -0.00510226
-0.00869274 0.0340151 -0.013606
-0.0164406 -0.000377945 0.0194642
-0.0224877 0.0128501 0.00680301
0.00132281 -0.000188973 0.00793685
0.027401 -0.0255113 0.0202201
0.0336371 -0.0394953 0.0325033
0.0117163 -0.0260782 0.0325033
0.0555579 -0.0400622 0.0230547
-0.0075589 -0.0224877 -0.0113384
-0.00132281 -0.0198421 -0.0143619
-0.00170075 -0.00566918 -0.0096376
-0.00925966 0.00529123 -0.00226767
-0.0151178 -0.0062361 -0.0105825
-0.0141729 -0.020409 -0.0154958
-0.0109604 0.0326923 0.0170075
-0.0555579 0.00718096 -0.0587705
0.0111494 0.00925966 0.00264562
0.0075589 0.0113384 -0.00850377
0.00661404 0.00774788 -0.00585815
0.00642507 0.00661404 0.000188973
0.00472431 0.0102045 -0.000377945
0.00510226 0.00661404 -0.0107714
0.00453534 0.00359048 -0.00793685
0.00548021 0.00170075 0
0.00661404 0.00321253 0.00396842
0.00226767 0.0147399 -0.00377945
0.00491329 0.0177634 -0.0211649
0.00869274 0.0128501 0.0103935
-0.027401 -0.0147399 0.0279679
0.0268341 -0.000188973 -0.00245664
-0.0449755 0.0336371 -0.00359048
-0.00170075 0.00944863 -0.000944863
0.0580146 -0.0627389 0.0444086
0.0173855 -0.0377945 0.0432747
0.00453534 -0.0266451 -0.0177634
0.00340151 -0.00151178 -0.00944863
-0.020598 -0.00245664 -0.0107714
-0.0190862 -0.02759 -0.0198421
-0.0309915 0.0326923 0.0241885
-0.0134171 0.0464873 0.02759
0.0102045 0.0423299 0.0164406
-0.0661404 0.0194642 -0.0835259
-0.0304246 0.0421409 -0.139084
-0.146076 -0.00661404 -0.0115273
0.00434637 0.00812582 -0.0166296
0.00321253 0.00264562 -0.0117163
0.00529123 -0.00113384 0.00283459
0.00718096 0.0020787 0.00907068
0.0190862 0.0164406 0.00888171
Vibration 13
0.00132281 -0.00888171 0.0398732
0.000944863 -0.00982658 0.0538572
0.00226767 -0.0103935 0.0102045
0.00283459 -0.0124722 -0.034393
0.00226767 -0.0120942 -0.0268341
0.00396842 -0.00888171 0.000188973
0.00340151 -0.0103935 -0.0230547
0.0041574 -0.0130391 0.0183303
0.00510226 -0.020787 0.0434637
0.000566918 -0.00925966 0.0455424
0.0126612 -0.00245664 0.0400622
0.00491329 0.0020787 0.0168186
-0.0153068 -0.0041574 0.000944863
-0.0200311 -0.0168186 0.0107714
-0.0124722 -0.0185193 0.0326923
-0.0325033 0.00718096 -0.034393
0.00226767 -0.00699199 0.0102045
0.00850377 -0.00699199 0.00510226
0.00869274 -0.0041574 -0.000377945
0.00377945 0 0.000566918
-0.00188973 0.00245664 0.00850377
-0.00170075 -0.00188973 0.0126612
0.0041574 0.0020787 -0.00831479
0.0134171 -0.0425188 -0.0115273
0.00377945 0.00812582 -0.0147399
0.00188973 0.0130391 -0.013984
0.0096376 0.00850377 -0.00226767
-0.00510226 0.0183303 -0.0251334
-0.0096376 0.020976 -0.0298577
0.0249444 -0.00188973 0.0247554
0.0213539 0.00113384 0.0181414
-0.000566918 0.0164406 -0.0187083
-0.0126612 0.0249444 -0.0396842
-0.020787 0.0408181 -0.0421409
-0.0102045 0.0238105 -0.0311805
0.00321253 0.0245664 -0.00604712
-0.000566918 -0.0100155 0.0924076
0.00075589 -0.0164406 -0.0162516
0.0281569 0.00132281 0.0523454
0.0130391 0.00982658 0.0105825
-0.0321253 -0.0226767 0.000188973
-0.0198421 -0.02759 0.0396842
0.013606 -0.0102045 0.00585815
0.0126612 -0.00548021 -0.00548021
-0.00604712 0.00718096 0.0105825
-0.00548021 -0.00113384 0.0164406
0.0096376 0.00453534 -0.0111494
-0.00132281 0.00132281 -0.0122832
0.00472431 0.00245664 -0.00907068
0.0117163 -0.0340151 -0.034582
0.00699199 -0.0544241 0.048188
0.0525344 -0.0723765 -0.0353379
0.0381725 -0.0117163 0.0491329
0.0338261 -0.00793685 0.0400622
-0.00736993 0.020598 -0.0300466
-0.0266451 0.0355268 -0.0655735
0.0020787 -0.0122832 -0.0255113
Vibration 14
0.000566918 0.0134171 0.0153068
0.000566918 0.0115273 0.00321253
0.00472431 0.00907068 -0.0164406
0.0062361 0.0103935 -0.0154958
0.00396842 0.00831479 -0.00151178
0.00132281 0.0120942 0.00888171
-0.0041574 0.00453534 -0.000377945
0.00132281 0.0241885 -0.00982658
0.00113384 0.0457314 -0.0340151
0.00151178 0.0143619 0.0181414
0.0062361 0.0211649 0.0126612
0.00850377 0.020409 0.0041574
0.00680301 0.013795 0.00132281
0.00283459 0.00661404 0.00680301
0.000566918 0.00869274 0.0153068
0.00944863 0.0134171 -0.00982658
0.0062361 -0.00188973 -0.0294797
0 -0.00774788 -0.0300466
-0.00075589 -0.00944863 -0.0171965
0.00680301 -0.00453534 -0.00340151
0.0149288 -0.0109604 -0.0181414
0.0149288 -0.00944863 -0.0306136
0.00472431 0.0107714 0.0349599
0.0103935 0.00132281 -0.013606
-0.0183303 -0.0115273 -0.00642507
-0.013984 -0.0130391 0.0120942
-0.00359048 -0.0143619 0.0232436
-0.0217318 0.000566918 -0.0164406
-0.00944863 -0.0192752 -0.00396842
0.0215429 -0.0289128 0.0708647
0.0168186 -0.0202201 0.0563138
-0.0185193 0.00661404 -0.013984
-0.0364717 0.0164406 -0.048377
0.0103935 -0.054991 0.0190862
-0.0183303 -0.0170075 0.0239995
-0.0187083 -0.0330702 -0.0147399
-0.0020787 0.00982658 0.00548021
-0.00113384 0.0132281 -0.0102045
0.00774788 0.0279679 0.0156847
0.0107714 0.0247554 0.000377945
0.00188973 -0.000377945 0.0041574
-0.0020787 0.00453534 0.0183303
-0.00510226 -0.00907068 -0.0362827
-0.00718096 -0.0120942 -0.0141729
0.020787 -0.013984 -0.0164406
0.0211649 -0.0107714 -0.0376055
-0.0257003 0.00661404 0.0470542
0.0173855 0.0222988 0.0523454
0.0198421 0.0170075 0.0387394
0.0126612 0.00359048 -0.0230547
0.00869274 -0.00132281 -0.00661404
0.0105825 -0.00680301 -0.0143619
0.0438416 -0.0464873 0.116785
0.0385504 -0.0328812 0.096754
-0.0296687 0.0183303 -0.0377945
-0.0595264 0.0338261 -0.0939194
0.000377945 -0.000377945 0.0103935
Vibration 15
0.000566918 0.00812582 0.0230547
-0.000188973 0.0100155 0.00642507
-0.000944863 0.0105825 -0.0190862
-0.00264562 0.00944863 -0.0185193
-0.00566918 0.00566918 -0.00264562
-0.00226767 0.00566918 0.0100155
-0.0113384 0.00377945 -0.0062361
-0.00321253 -0.00812582 -0.00075589
-0.00510226 -0.0292908 -0.0158737
0.00718096 0.00548021 0.0319364
0.020409 0.00907068 0.0298577
0.0170075 0.0115273 0.0147399
0.000944863 0.00925966 0.00264562
-0.000566918 -0.00151178 0.0113384
0.0020787 -0.00170075 0.0257003
-0.0175745 0.020787 -0.0266451
0.000188973 -0.00132281 -0.0349599
-0.0105825 -0.0126612 -0.0377945
-0.0117163 -0.0188973 -0.0215429
-0.000566918 -0.0115273 -0.00132281
0.0120942 -0.0149288 -0.0166296
0.0119053 -0.00944863 -0.0336371
-0.00321253 0.00302356 0.048188
0.013984 -0.0128501 -0.0109604
-0.00680301 0.00359048 -0.00736993
-0.00188973 -0.00188973 0.00359048
-0.0120942 0.00793685 -0.0145509
0.00396842 -0.00340151 0.0103935
-0.00453534 0.00377945 -0.00075589
-0.0260782 0.0194642 -0.0374166