[Molden Format]
[FREQ]
-1668.5
8.9
16.4
26.7
30.0
30.1
32.0
34.8
36.9
39.5
51.2
65.0
81.4
83.2
95.3
102.5
108.4
117.5
136.7
149.2
160.6
180.6
187.7
206.0
219.1
233.9
243.9
255.1
263.8
273.3
289.1
316.8
327.0
348.3
350.0
356.5
364.3
382.5
402.2
416.4
425.4
438.8
464.3
489.7
508.3
526.1
541.5
551.0
566.7
580.4
589.9
599.1
611.6
616.2
633.2
637.7
649.2
671.8
680.9
690.7
712.6
724.2
764.7
784.4
794.0
810.3
817.7
829.3
846.2
880.1
882.6
896.2
897.5
900.9
939.5
960.7
964.0
971.2
994.5
1005.3
1009.0
1009.3
1015.5
1016.9
1032.1
1035.5
1046.8
1071.0
1078.4
1080.8
1113.9
1126.2
1138.6
1178.8
1181.1
1182.1
1183.4
1190.6
1206.1
1213.1
1234.5
1261.3
1269.2
1270.7
1275.7
1280.6
1284.0
1287.0
1296.8
1301.5
1325.6
1327.2
1331.9
1337.2
1339.6
1348.8
1352.0
1358.6
1365.3
1382.4
1394.0
1427.9
1440.0
1493.9
1500.3
1522.4
1527.9
1528.4
1545.4
1557.8
1567.6
1598.5
1601.3
1643.3
1667.5
1688.1
1690.7
1700.0
1701.7
1705.7
1708.2
1710.3
1838.0
2183.8
2449.0
2651.6
2654.2
2667.6
2673.9
2740.1
2744.8
2745.2
2745.5
2746.3
2747.6
2751.4
2753.7
2754.4
2761.9
2763.6
2765.5
2766.4
2767.6
2770.2
2779.9
       
[FR-COORD]
C -2.24348 -2.96857 1.03784
C 0.390606 -2.96857 1.03784
C 1.68412 -0.650255 1.03784
N 0.468463 1.58132 1.0556
C -2.10515 1.60683 0.993051
C -3.55212 -0.657058 0.993807
N -3.24012 3.9278 0.85529
C -6.21361 -0.530446 0.891951
N -8.39681 -0.387016 0.795575
C -3.61202 -5.37551 1.05258
C -3.13581 -7.15847 -0.848865
C -4.42026 -9.43824 -0.872109
C -6.18847 -9.9307 1.04936
C -6.6713 -8.18648 2.96706
C -5.37117 -5.89954 2.94684
O -7.3019 -12.2275 0.805023
C 4.46164 -0.511738 0.966406
C 5.75724 1.02537 2.6751
C 8.37716 1.21472 2.54017
C 9.70639 -0.108092 0.682947
C 8.40059 -1.64841 -1.02234
C 5.7854 -1.8576 -0.879101
C 12.5104 0.100344 0.511738
C -9.1903 -12.879 2.60121
C -2.2261 6.26917 0.518352
C 0.437472 7.25031 0.772709
C 2.31737 6.50085 -1.15481
C 1.59077 5.56864 -3.52302
C -1.16029 5.44921 -3.98543
C 4.86907 6.67489 -0.522887
C 6.69794 5.8761 -2.24764
C 5.9806 4.91763 -4.59052
C 3.4257 4.77383 -5.2319
O -1.67902 4.55065 -6.22495
O 0.938627 8.54326 2.57513
O -4.21428 7.58971 0.212027
H 1.43884 -4.73414 1.07525
H -5.54767 5.32865 0.462416
H -1.7582 -6.73574 -2.32455
H -4.09409 -10.8408 -2.33646
H -8.03455 -8.57029 4.4486
H -5.73343 -4.50832 4.42744
H 4.70523 2.0855 4.09806
H 9.384 2.40165 3.88225
H 9.43295 -2.68228 -2.46723
H 4.76797 -3.04605 -2.21816
H 13.4263 -1.63159 1.2132
H 13.2697 1.67808 1.62573
H 13.1485 0.375489 -1.44583
H -9.785 -14.7576 1.94642
H -10.7752 -11.5515 2.52278
H -8.38887 -12.9973 4.50378
H 5.42862 7.41094 1.32281
H 8.69179 5.98533 -1.74573
H 7.41094 4.27135 -5.92089
H 2.85878 4.02776 -7.06909
H -3.52207 4.43802 -6.55981

[FR-NORM-COORD]
Vibration 1
-0.00075589 0.00132281 -0.000188973
0.000944863 0 0.000188973
0.00283459 -0.0020787 -0.000188973
0.00604712 -0.00642507 0.000188973
0.0171965 -0.00113384 0.00434637
0.00264562 0.0020787 0
0.048377 -0.0102045 0.00264562
0 0.00170075 0
-0.000188973 -0.000188973 0
0 -0.000188973 0
0 0.000188973 0
-0.000188973 -0.000188973 0
0.000188973 0.000377945 0
0 -0.000188973 0
0.000188973 0 0
-0.000188973 -0.000188973 0
0.000944863 -0.00075589 0
0.000188973 -0.000188973 0
0.000188973 0.000188973 0
-0.000188973 0 0
0.000377945 0 0
0.000188973 0 -0.000188973
0.000188973 0 0
0 0 -0.000188973
0.0317474 -0.0886281 0.0145509
-0.00170075 0.0062361 -0.00283459
-0.000377945 -0.000188973 0.000377945
-0.000188973 -0.000566918 0
-0.000188973 0.00245664 -0.00075589
-0.000188973 0.000188973 0.000188973
0 0 -0.000188973
0 0.000188973 0.000188973
-0.000188973 0 0
0 -0.000188973 0.00075589
-0.00075589 0.000188973 0.000188973
-0.0646286 -0.0222988 0.000566918
-0.000377945 -0.00075589 0.000566918
-0.351867 1.54334 -0.254168
0.000188973 0 0.000377945
-0.000188973 0.000188973 0.000566918
0.000188973 0 -0.000377945
-0.000188973 0.000566918 -0.000566918
-0.000188973 -0.00132281 -0.000188973
-0.000188973 -0.000377945 0
0 0 0.000377945
-0.000188973 -0.000188973 0.000566918
-0.000188973 0 0
-0.000188973 -0.000188973 0
-0.000188973 -0.000188973 0.000188973
-0.000188973 0.000188973 0.000377945
0.000377945 0.000188973 0
0.000188973 0.000188973 -0.000188973
0.000377945 -0.00113384 0.000944863
0.000188973 -0.000566918 0.000944863
0.000188973 -0.00075589 0
-0.000377945 -0.00075589 0.000188973
-0.00075589 -0.00491329 0.00226767
Vibration 2
-0.00736993 -0.00529123 -0.00566918
-0.00736993 -0.00510226 -0.00944863
-0.00774788 -0.00491329 -0.0154958
-0.00793685 -0.00510226 -0.0175745
-0.00812582 -0.00529123 -0.0147399
-0.00774788 -0.00548021 -0.00888171
-0.00793685 -0.00548021 -0.0183303
-0.00793685 -0.00604712 -0.00585815
-0.00812582 -0.00680301 -0.00359048
-0.00718096 -0.00529123 0.00264562
-0.0100155 -0.0103935 0.00680301
-0.0100155 -0.0105825 0.0149288
-0.00680301 -0.00548021 0.0190862
-0.00396842 -0.000377945 0.0151178
-0.0041574 -0.000377945 0.00680301
-0.00699199 -0.00642507 0.0272121
-0.00793685 -0.00434637 -0.020787
-0.00434637 -0.0122832 -0.0164406
-0.00453534 -0.0107714 -0.0221098
-0.00907068 -0.000944863 -0.0323143
-0.0128501 0.00699199 -0.0364717
-0.0122832 0.00510226 -0.0306136
-0.0096376 0.00188973 -0.0400622
-0.00359048 -0.00188973 0.0325033
-0.00661404 -0.00529123 -0.0143619
-0.0100155 -0.0020787 0.0100155
0.00718096 0.0132281 0.020976
0.0287238 0.0100155 0.0156847
0.0326923 -0.0102045 -0.00132281
0.0020787 0.0311805 0.0368497
0.0187083 0.0474321 0.0470542
0.0402512 0.0449755 0.041385
0.0451645 0.0258892 0.0258892
0.0527234 -0.0232436 -0.000566918
-0.0270231 -0.0102045 0.020598
-0.00510226 -0.00680301 -0.0304246
-0.00699199 -0.00472431 -0.00793685
-0.00566918 -0.00699199 -0.0368497
-0.0124722 -0.0143619 0.00340151
-0.0120942 -0.0145509 0.0183303
-0.00170075 0.00359048 0.0183303
-0.0020787 0.00377945 0.00359048
-0.000944863 -0.0194642 -0.00869274
-0.00170075 -0.0171965 -0.0188973
-0.0160627 0.0147399 -0.0444086
-0.0154958 0.0111494 -0.0336371
-0.00642507 -0.0107714 -0.075778
-0.00453534 -0.0185193 -0.0149288
-0.0187083 0.0374166 -0.0381725
-0.00396842 -0.00396842 0.0389284
-0.0041574 -0.00264562 0.0313695
-0.000188973 0.00396842 0.0313695
-0.0149288 0.0332592 0.041196
0.0147399 0.062172 0.0593374
0.0532903 0.0576366 0.0493218
0.062172 0.0230547 0.0217318
0.0555579 -0.0366607 -0.0119053
Vibration 3
-0.00226767 -0.0062361 -0.0141729
-0.00226767 -0.0062361 -0.0122832
-0.00226767 -0.0062361 -0.0147399
-0.00188973 -0.0062361 -0.0196532
-0.00188973 -0.00604712 -0.0228657
-0.0020787 -0.0062361 -0.0215429
-0.0020787 -0.0062361 -0.0213539
-0.00188973 -0.00661404 -0.0249444
-0.00188973 -0.00718096 -0.02759
-0.00113384 -0.00680301 -0.00321253
0.000188973 -0.0168186 0.00661404
0.00491329 -0.0196532 0.0215429
0.00812582 -0.0120942 0.0264562
0.00529123 -0.000944863 0.0156847
0.000566918 0.00151178 0.00075589
0.0143619 -0.0168186 0.0427078
-0.00188973 -0.00850377 -0.00736993
-0.00491329 -0.0175745 0.00321253
-0.0041574 -0.0228657 0.0134171
-0.000188973 -0.0187083 0.0134171
0.00283459 -0.00888171 0.00245664
0.00170075 -0.00377945 -0.00793685
0.00113384 -0.0257003 0.0266451
0.0202201 -0.0115273 0.0506447
-0.00188973 -0.00396842 -0.00491329
-0.00170075 -0.00736993 0.00699199
-0.000566918 0.000566918 0.00491329
-0.0020787 0.0374166 -0.00907068
-0.0020787 0.0670853 -0.0154958
-0.00113384 -0.0308025 0.0154958
-0.00359048 -0.0283459 0.0117163
-0.00529123 0.00661404 -0.00188973
-0.00453534 0.0400622 -0.0126612
-0.00566918 0.156658 -0.0504557
-0.00283459 -0.0194642 0.0156847
-0.00170075 -0.0020787 0.00132281
-0.00226767 -0.00604712 -0.0075589
-0.00170075 -0.00396842 -0.0153068
-0.0020787 -0.0228657 0.00283459
0.00642507 -0.027779 0.0296687
0.00680301 0.00529123 0.0188973
-0.00151178 0.00982658 -0.0075589
-0.00793685 -0.020976 0.00340151
-0.0062361 -0.0304246 0.0219208
0.00585815 -0.00566918 0.0020787
0.00396842 0.00377945 -0.0162516
-0.00642507 -0.0192752 0.0529123
-0.00264562 -0.013984 0.0128501
0.013984 -0.0500777 0.02759
0.0262672 -0.0185193 0.0650066
0.0149288 -0.0181414 0.0442196
0.0238105 0.00491329 0.0502667
-0.000188973 -0.0583925 0.0260782
-0.0041574 -0.0544241 0.0198421
-0.00718096 0.00812582 -0.00472431
-0.00566918 0.068975 -0.0239995
-0.00604712 0.18028 -0.0557469
Vibration 4
-0.00585815 0.0075589 -0.00793685
-0.0062361 0.00529123 -0.0164406
-0.00491329 0.00453534 -0.0107714
-0.00377945 0.00510226 -0.00642507
-0.00396842 0.00699199 -0.00132281
-0.00529123 0.00774788 0.00434637
-0.00321253 0.00718096 -0.00226767
-0.0062361 0.00661404 0.0255113
-0.00718096 0.0041574 0.0451645
-0.00642507 0.0075589 -0.0107714
-0.0491329 0.0349599 -0.0470542
-0.0459203 0.0330702 -0.0470542
0.00264562 0.00340151 -0.0100155
0.0440306 -0.0226767 0.0239995
0.0383614 -0.0192752 0.0230547
0.00359048 0.00321253 -0.0124722
-0.00472431 0.000944863 -0.00585815
-0.00642507 -0.000377945 -0.00321253
-0.00529123 -0.00907068 0.00680301
-0.0020787 -0.0166296 0.0143619
-0.000566918 -0.013606 0.0103935
-0.00188973 -0.00472431 0.000377945
-0.000377945 -0.0289128 0.0292908
0.0570697 -0.0302356 0.0315584
-0.00377945 0.00661404 -0.00869274
-0.00491329 0.0100155 -0.00907068
-0.000944863 0.00340151 -0.00264562
0.00396842 -0.00321253 -0.00151178
0.00510226 -0.00434637 -0.00736993
-0.00245664 0.0041574 0.00283459
0.00132281 -0.0020787 0.0096376
0.0062361 -0.00869274 0.0107714
0.00774788 -0.00907068 0.00510226
0.0103935 -0.00434637 -0.00869274
-0.00907068 0.0187083 -0.0141729
-0.0041574 0.00472431 -0.0141729
-0.00793685 0.0041574 -0.0264562
-0.00340151 0.00529123 -0.00812582
-0.0848487 0.0576366 -0.0736993
-0.0791795 0.0536682 -0.0742662
0.0801244 -0.0451645 0.0514005
0.0699199 -0.0383614 0.048377
-0.00869274 0.00472431 -0.00869274
-0.00661404 -0.0107714 0.00925966
0.00170075 -0.0188973 0.0156847
-0.000377945 -0.00283459 -0.00245664
-0.0113384 -0.0109604 0.0884392
-0.00529123 0.00188973 -0.0107714
0.0173855 -0.0886281 0.0268341
0.0487549 -0.0247554 0.0234326
0.047999 -0.0374166 0.0929745
0.11036 -0.0510226 0.00774788
-0.00642507 0.0096376 0.00188973
0.000188973 -0.00170075 0.013984
0.00907068 -0.0134171 0.0160627
0.0117163 -0.0141729 0.00585815
0.0111494 -0.00472431 -0.0128501
Vibration 5
0.00661404 -0.0105825 0.00264562
0.00642507 -0.00888171 0
0.00340151 -0.00699199 0.00170075
0.000944863 -0.00869274 -0.000188973
0.00075589 -0.0107714 -0.00132281
0.00359048 -0.0120942 0.00283459
0.00132281 -0.0107714 -0.00566918
0.00321253 -0.0166296 0.00869274
0.00264562 -0.0211649 0.013984
0.00396842 -0.00925966 0.00491329
-0.0236216 0.00113384 -0.0113384
-0.0362827 0.00812582 -0.013795
-0.0200311 0.00472431 0.000188973
0.0113384 -0.00736993 0.0192752
0.0230547 -0.013984 0.0213539
-0.0385504 0.0145509 -0.00680301
0.00321253 0.00226767 0.00642507
-0.00510226 -0.0200311 0.0328812
-0.00642507 -0.00151178 0.034204
0 0.0398732 0.00925966
0.00831479 0.0599043 -0.0151178
0.0096376 0.0406291 -0.0164406
-0.00188973 0.0644397 0.00680301
-0.0298577 0.0164406 0.00321253
0.00661404 -0.0128501 -0.00604712
0.00925966 -0.020787 -0.00132281
0.00736993 -0.0141729 -0.00566918
0.00548021 -0.00472431 -0.00869274
0.00510226 -0.0041574 -0.0062361
0.00793685 -0.0170075 -0.00718096
0.00661404 -0.00888171 -0.0124722
0.00453534 0.00151178 -0.0160627
0.00396842 0.00321253 -0.013984
0.00321253 0.0111494 -0.0119053
0.0124722 -0.0321253 0.00585815
0.00982658 -0.00888171 -0.00888171
0.00831479 -0.00774788 -0.00302356
0.00472431 -0.00604712 -0.00907068
-0.0360938 0.00396842 -0.0221098
-0.0587705 0.0166296 -0.0270231
0.0260782 -0.0113384 0.0317474
0.0464873 -0.0224877 0.0349599
-0.0103935 -0.0506447 0.0515895
-0.0126612 -0.0183303 0.0538572
0.013606 0.0910848 -0.0336371
0.0158737 0.0565028 -0.0351489
0.0128501 0.0493218 -0.0500777
-0.00888171 0.0351489 0.0529123
-0.0109604 0.129446 0.0130391
-0.0527234 0.027779 -0.00831479
-0.0181414 0.0317474 0.0283459
-0.0147399 -0.00774788 -0.00453534
0.0096376 -0.0255113 -0.00434637
0.00699199 -0.0107714 -0.013795
0.00340151 0.00831479 -0.020598
0.00226767 0.0109604 -0.0168186
0.00283459 0.0124722 -0.0105825
Vibration 6
0.0149288 -0.0105825 0.0200311
0.0147399 -0.00699199 0.0164406
0.0117163 -0.00491329 0.00736993
0.00850377 -0.0062361 0.000944863
0.00850377 -0.0102045 0.0062361
0.0117163 -0.0124722 0.0187083
0.00113384 -0.0143619 -0.00132281
0.0109604 -0.0168186 0.0302356
0.0102045 -0.020976 0.0417629
0.0141729 -0.0102045 0.0187083
0.00340151 -0.0020787 0.00850377
-0.00982658 0.00529123 -0.00396842
-0.0119053 0.00472431 -0.00604712
0.0041574 -0.00661404 0.00812582
0.0173855 -0.013795 0.020598
-0.0309915 0.0156847 -0.0232436
0.0113384 -0.0020787 0.00245664
0.0109604 0.0325033 -0.0281569
0.0105825 0.034393 -0.0340151
0.0111494 0.00075589 -0.00944863
0.0120942 -0.034582 0.0215429
0.0126612 -0.0355268 0.027401
0.0103935 0.00302356 -0.0188973
-0.0461093 0.0238105 -0.0360938
-0.0119053 -0.0105825 -0.0107714
-0.0190862 0.00831479 -0.0103935
-0.0100155 0.0062361 -0.00075589
-0.000377945 0.00359048 -0.00264562
0.00151178 0.00245664 -0.0124722
-0.0128501 0.0075589 0.00982658
-0.00585815 0.00302356 0.0192752
0.00377945 -0.00170075 0.0183303
0.00661404 -0.00075589 0.00699199
0.0105825 0.0478101 -0.0325033
-0.0315584 0.0238105 -0.0181414
-0.0190862 -0.0232436 -0.0200311
0.0166296 -0.00566918 0.0200311
-0.00642507 -0.0292908 -0.0113384
0.00396842 -0.000944863 0.00944863
-0.0196532 0.0124722 -0.0130391
0.00604712 -0.00907068 0.00907068
0.0287238 -0.0217318 0.0308025
0.0103935 0.0578256 -0.0472432
0.0096376 0.061983 -0.0576366
0.0128501 -0.0608492 0.0410071
0.013606 -0.0629279 0.0508336
0.0149288 -0.00548021 -0.0461093
0.0160627 -0.0111494 -0.00264562
-0.000377945 0.0285349 -0.0190862
-0.0672742 0.0370386 -0.0546131
-0.0292908 0.0444086 -0.0298577
-0.0542351 -0.00302356 -0.034393
-0.020598 0.0115273 0.0105825
-0.00793685 0.00302356 0.027779
0.00925966 -0.00585815 0.0260782
0.0143619 -0.00321253 0.00566918
0.0117163 0.0496998 -0.0400622
Vibration 7
-0.00283459 0.00774788 0.0115273
-0.00264562 0.00774788 0.00925966
-0.00264562 0.00736993 0.00850377
-0.00132281 0.00793685 0.00925966
-0.00151178 0.00793685 0.0102045
-0.0020787 0.00793685 0.0145509
-0.00264562 0.00718096 0.0041574
-0.00226767 0.00944863 0.0215429
-0.00245664 0.0109604 0.0287238
-0.000188973 0.0062361 0.00642507
0.0160627 0.00548021 0.0107714
0.0228657 0.00188973 0.00510226
0.0124722 -0.00113384 -0.00510226
-0.00491329 -0.000188973 -0.0103935
-0.0107714 0.00340151 -0.00434637
0.0215429 -0.00510226 -0.00925966
-0.00245664 0.00377945 0.00245664
0.0075589 -0.0287238 0.0236216
0.00774788 -0.0338261 0.0170075
-0.00302356 -0.00548021 -0.0107714
-0.0134171 0.0270231 -0.0323143
-0.0132281 0.0311805 -0.0255113
-0.00340151 -0.00850377 -0.0221098
0.0128501 -0.00944863 -0.0200311
-0.00661404 0.00699199 -0.00718096
-0.00907068 0.0151178 -0.0130391
-0.0041574 -0.00604712 0
0.00132281 -0.0126612 0.000944863
0.00264562 -0.00132281 -0.00982658
-0.0062361 -0.0181414 0.0113384
-0.00283459 -0.0372276 0.0238105
0.00245664 -0.0436527 0.0247554
0.00472431 -0.0313695 0.0134171
0.00850377 0.0188973 -0.0194642
-0.0151178 0.0385504 -0.0283459
-0.00907068 0.00170075 -0.0153068
-0.0020787 0.00793685 0.00699199
-0.00491329 0.00075589 -0.00453534
0.0238105 0.00774788 0.0187083
0.0359048 0.00132281 0.00869274
-0.0134171 -0.0020787 -0.0187083
-0.0239995 0.00377945 -0.00793685
0.0156847 -0.0498888 0.0451645
0.0158737 -0.0595264 0.0336371
-0.0215429 0.0493218 -0.0538572
-0.0217318 0.0563138 -0.041196
-0.00377945 -0.0540462 -0.134926
0.0147399 -0.0786126 0.0646286
-0.0219208 0.106014 -0.0124722
0.0238105 -0.0126612 -0.020976
0.00850377 -0.0154958 -0.0317474
0.00151178 -0.00377945 -0.0149288
-0.0105825 -0.0126612 0.0105825
-0.00453534 -0.0470542 0.0328812
0.00491329 -0.0580146 0.034393
0.00888171 -0.0362827 0.013984
0.00944863 0.02759 -0.027401
Vibration 8
-0.00680301 0.00283459 -0.00359048
-0.00680301 0.000377945 0.00321253
-0.00453534 -0.00075589 0.00566918
-0.00340151 0 0.00434637
-0.00321253 0.00226767 -0.000944863
-0.00510226 0.00359048 -0.00699199
0.000377945 0.0041574 -0.000188973
-0.00472431 0.00472431 -0.0168186
-0.0041574 0.00529123 -0.0258892
-0.0075589 0.00321253 -0.00566918
-0.0145509 0.00831479 -0.0122832
-0.0105825 0.00604712 -0.0100155
0.00113384 -0.00132281 -0.00113384
0.00585815 -0.00491329 0.00321253
0.00113384 -0.00226767 0.00075589
0.00680301 -0.00453534 0.0020787
-0.00472431 -0.00132281 0.00793685
-0.00699199 0.0230547 -0.0124722
-0.00699199 0.0260782 -0.0147399
-0.00491329 0.00359048 0.00377945
-0.00226767 -0.0232436 0.0249444
-0.00151178 -0.0255113 0.0272121
-0.00661404 0.0120942 -0.0147399
0.0257003 -0.0168186 0.0173855
0.00585815 0.00245664 0.00377945
0.00869274 -0.00529123 0.00510226
0.00548021 -0.00377945 0.00151178
0.0020787 -0.000944863 0.00132281
0.00151178 0.00340151 0.00359048
0.00642507 -0.00604712 -0.00170075
0.00377945 -0.00604712 -0.00472431
0.000188973 -0.0041574 -0.00434637
-0.00075589 -0.00151178 -0.00132281
-0.00170075 0.00302356 0.00453534
0.0134171 -0.0126612 0.00907068
0.00925966 0.00774788 0.00585815
-0.00888171 -0.00075589 0.0062361
0.00377945 0.0103935 0.00170075
-0.0228657 0.013795 -0.0181414
-0.0156847 0.0096376 -0.0145509
0.0132281 -0.00982658 0.00888171
0.00491329 -0.00472431 0.00396842
-0.00888171 0.0404401 -0.0264562
-0.0102045 0.0466762 -0.0304246
0.00075589 -0.0406291 0.0396842
0.00075589 -0.0457314 0.0432747
0.0020787 -0.102045 -0.309915
0.0285349 -0.167997 0.215618
-0.0534792 0.317852 0.0119053
0.0306136 -0.0194642 0.020409
0.0177634 -0.0255113 0.0319364
0.0423299 -0.0143619 0.0105825
0.00944863 -0.00793685 -0.00188973
0.00453534 -0.0075589 -0.00699199
-0.0020787 -0.00453534 -0.00661404
-0.00359048 0.000377945 -0.00113384
-0.00226767 0.00566918 0.00604712
Vibration 9
-0.0188973 0.00491329 0.0187083
-0.0185193 0.00226767 0.0187083
-0.0156847 0.000377945 0.013984
-0.013984 0.00113384 0.0075589
-0.0141729 0.00434637 0.00944863
-0.0170075 0.00604712 0.0202201
-0.00510226 0.00812582 -0.0020787
-0.0173855 0.00944863 0.0336371
-0.0177634 0.0119053 0.0478101
-0.0158737 0.00302356 0.0103935
0.00321253 0.0062361 0.0115273
0.0153068 0 0.00264562
0.00699199 -0.0103935 -0.0075589
-0.0151178 -0.0124722 -0.0113384
-0.0262672 -0.00566918 -0.0020787
0.0236216 -0.0175745 -0.013984
-0.0160627 0.00170075 0.0100155
-0.0158737 0.0194642 -0.00585815
-0.0173855 0.0289128 -0.0168186
-0.0187083 0.0200311 -0.0117163
-0.0183303 -0.00075589 0.00718096
-0.0170075 -0.00982658 0.0179524
-0.020409 0.0326923 -0.0228657
0.020787 -0.0325033 -0.0222988
0.0132281 -0.00075589 -0.0107714
0.0200311 -0.0213539 0.000566918
0.0187083 -0.013606 -0.00377945
0.0179524 -0.00529123 -0.00680301
0.0179524 -0.00472431 -0.00510226
0.0192752 -0.0147399 -0.00529123
0.0185193 -0.0075589 -0.00944863
0.0173855 0.000188973 -0.0122832
0.0170075 0.00132281 -0.0107714
0.0170075 0.0245664 -0.0168186
0.0260782 -0.0423299 0.013984
0.0241885 0.0124722 -0.0251334
-0.020409 0.00113384 0.0211649
0.00680301 0.0232436 -0.0185193
0.00982658 0.013984 0.0196532
0.0313695 0.00226767 0.00396842
-0.0232436 -0.0194642 -0.020598
-0.0430858 -0.00812582 -0.00396842
-0.0151178 0.0266451 -0.0105825
-0.0170075 0.0434637 -0.0298577
-0.0192752 -0.00944863 0.0126612
-0.0168186 -0.0253223 0.0313695
-0.00888171 0.0721875 0.0602823
-0.0325033 0.0910848 -0.0975099
-0.020598 -0.0563138 -0.0353379
0.0394953 -0.0377945 -0.0239995
0.0102045 -0.0457314 -0.0304246
0.0128501 -0.0247554 -0.0185193
0.0202201 -0.0213539 -0.00283459
0.0188973 -0.00831479 -0.0103935
0.0168186 0.00548021 -0.0154958
0.0160627 0.00774788 -0.0132281
0.0168186 0.0268341 -0.0166296
Vibration 10
-0.00113384 -0.000566918 0.00888171
-0.000944863 0.00075589 -0.00151178
-0.00132281 0.000944863 -0.0075589
-0.00113384 0.00075589 -0.0119053
-0.00170075 -0.000377945 -0.000944863
-0.00151178 -0.000566918 0.0158737
-0.0020787 -0.000944863 -0.00604712
-0.00264562 0.000377945 0.0430858
-0.00359048 0.00151178 0.069164
0.00151178 -0.0020787 0.00888171
0.0149288 -0.00491329 0.0145509
0.0173855 -0.00604712 0.00944863
0.00510226 -0.00453534 -0.00132281
-0.00718096 -0.00283459 -0.00604712
-0.00850377 -0.00188973 -0.000566918
0.0075589 -0.00510226 -0.00642507
-0.00113384 -0.00245664 -0.00359048
-0.00170075 -0.0190862 0.0117163
0.000188973 -0.0340151 0.027401
0.00264562 -0.0315584 0.02759
0.00226767 -0.0096376 0.00774788
0.000377945 0.00472431 -0.00774788
0.00529123 -0.0523454 0.0447865
-0.0102045 -0.000566918 -0.0234326
-0.000377945 -0.00245664 -0.0126612
-0.000188973 -0.00434637 -0.00812582
-0.00132281 0.0154958 -0.0168186
-0.0020787 0.0187083 -0.0177634
-0.00283459 -0.00321253 -0.00793685
-0.000377945 0.0323143 -0.0247554
0 0.054991 -0.034771
-0.000566918 0.0604712 -0.0368497
-0.00170075 0.0419519 -0.0281569
-0.00377945 -0.00699199 -0.0062361
0.00075589 -0.0200311 0.00302356
0.000566918 -0.0020787 -0.0173855
0.000188973 0.00113384 -0.0041574
-0.000944863 -0.000566918 -0.0111494
0.0234326 -0.00566918 0.0221098
0.0279679 -0.00774788 0.013606
-0.0158737 -0.00226767 -0.013795
-0.0181414 -0.00132281 -0.00359048
-0.00321253 -0.0217318 0.0126612
-0.000377945 -0.047999 0.0402512
0.0041574 -0.00453534 0.00548021
0.000188973 0.020598 -0.0215429
-0.0132281 -0.107525 -0.0680301
0.0232436 -0.133037 0.146643
0.00661404 0.0682191 0.061983
-0.00680301 -0.000377945 -0.0270231
-0.0075589 0.00151178 -0.0393063
-0.027779 0 -0.0158737
0 0.0283459 -0.0232436
0.00075589 0.0693529 -0.041196
0 0.0789905 -0.0451645
-0.0020787 0.0455424 -0.0294797
-0.0041574 -0.0215429 0.000566918
Vibration 11
-0.00132281 -0.00283459 -0.0383614
-0.000566918 -0.00377945 -0.0629279
0.000944863 -0.00510226 -0.0495108
0.00113384 -0.00453534 -0.0330702
0.00132281 -0.00226767 -0.0166296
-0.000188973 -0.00132281 -0.0100155
0.00226767 -0.00075589 0
-0.00170075 0.00529123 0.0359048
-0.00321253 0.0134171 0.0797464
-0.00226767 -0.00188973 -0.0283459
0.00793685 -0.0215429 -0.0075589
0.00869274 -0.0222988 0.00869274
-0.00245664 -0.00321253 0.00321253
-0.0147399 0.0171965 -0.0183303
-0.013795 0.0160627 -0.0334482
0 -0.0062361 0.0222988
0.000944863 0.000566918 -0.034393
-0.020598 0.0156847 -0.0306136
-0.020409 0.0262672 -0.00642507
0.00264562 0.020409 0.0143619
0.0249444 0.00510226 0.0109604
0.0239995 -0.00453534 -0.013606
0.00321253 0.0319364 0.0396842
-0.0113384 0.013984 0.0181414
0.00132281 0.00075589 0.00812582
0.00151178 0.00188973 0.00434637
0.00170075 -0.00548021 0.00736993
0.00151178 -0.00680301 0.00793685
0.00170075 0.00359048 0.00377945
0.00132281 -0.013795 0.0107714
0.00075589 -0.0249444 0.0153068
0.000566918 -0.02759 0.0166296
0.00113384 -0.0181414 0.0126612
0.00170075 -0.0100155 0.00907068
0.00170075 0.00718096 0.000377945
0.000377945 0.0020787 0.020787
-0.00132281 -0.00472431 -0.0842818
0.000944863 0.00132281 0.0149288
0.0156847 -0.0364717 -0.00472431
0.0179524 -0.0374166 0.0251334
-0.0241885 0.0330702 -0.0228657
-0.0217318 0.0298577 -0.048188
-0.0385504 0.0192752 -0.0462983
-0.0383614 0.0381725 -0.00359048
0.0430858 0.000566918 0.0272121
0.0419519 -0.0162516 -0.0168186
0.00396842 0.0226767 0.0154958
-0.00944863 0.0145509 0.0729434
0.0160627 0.0685971 0.0489439
-0.00529123 0.00548021 0.0372276
-0.0119053 0.0117163 -0.00888171
-0.0238105 0.0381725 0.0249444
0.00151178 -0.0117163 0.00982658
0.000377945 -0.0321253 0.0183303
0 -0.0372276 0.020598
0.000944863 -0.0200311 0.0134171
0.0020787 -0.0041574 0.00642507
Vibration 12
-0.00510226 -0.0128501 -0.00302356
-0.00434637 -0.0243775 0.000944863
0.0062361 -0.0304246 0.0130391
0.0168186 -0.0236216 0.0179524
0.0181414 -0.0120942 0.0143619
0.00718096 -0.00604712 0.00510226
0.0213539 -0.0102045 0.020409
0.00812582 0.0122832 0.00396842
0.00944863 0.0321253 0.00377945
-0.0179524 -0.00585815 -0.0122832
-0.013606 -0.0117163 -0.00566918
-0.0168186 -0.0100155 -0.00529123
-0.0241885 -0.00396842 -0.0105825
-0.0372276 0.0062361 -0.0232436
-0.0340151 0.00434637 -0.0239995
-0.0187083 -0.00736993 -0.00377945
0.00680301 -0.0336371 0.0188973
0.00151178 -0.0321253 0.0219208
-0.00075589 -0.0111494 0.013606
0.00283459 0.00831479 0.00226767
0.0096376 -0.00264562 0.00699199
0.0115273 -0.0238105 0.0154958
-0.000944863 0.0444086 -0.0160627
0.0270231 -0.0330702 0.0349599
0.00888171 -0.0075589 0.00982658
0.000566918 0.0198421 -0.0113384
0.000944863 0.0158737 -0.00907068
0.00170075 0.0020787 -0.00377945
0.00151178 -0.0111494 -0.000377945
0.00113384 0.0340151 -0.0147399
0.00264562 0.0370386 -0.0145509
0.00359048 0.0211649 -0.00831479
0.00321253 0.00359048 -0.00302356
0.00434637 0.020409 -0.013606
-0.00642507 0.0517785 -0.0323143
0.000566918 -0.0183303 0.013606
-0.0124722 -0.0291018 -0.00453534
0.0126612 -0.0230547 0.0251334
-0.00566918 -0.0185193 -0.000377945
-0.0113384 -0.0147399 0.000377945
-0.0493218 0.0154958 -0.0319364
-0.0428968 0.0107714 -0.0319364
-0.00188973 -0.0442196 0.0285349
-0.00529123 -0.00736993 0.013795
0.0128501 0.0075589 0.0020787
0.0166296 -0.0302356 0.0171965
0.0266451 0.0631168 -0.00661404
-0.0162516 0.0646286 -0.0340151
-0.0160627 0.0364717 -0.0221098
0.0496998 -0.0474321 0.0557469
0.00151178 -0.062361 0.0563138
0.0634948 -0.00831479 0.0213539
0.000377945 0.0466762 -0.0194642
0.00302356 0.0525344 -0.0194642
0.00472431 0.0230547 -0.00812582
0.0041574 -0.00793685 0.00151178
0.00453534 0.0141729 -0.0130391
Vibration 13
0.000566918 -0.00170075 0.0141729
0.000944863 -0.00491329 0.0234326
0.00396842 -0.00699199 0.0062361
0.00736993 -0.00434637 -0.0192752
0.00793685 -0.00226767 -0.0232436
0.00453534 -0.000377945 -0.00302356
0.0062361 -0.00396842 -0.041196
0.00434637 0.00585815 0.00718096
0.00434637 0.013606 0.0202201
-0.00226767 -0.000377945 0.013795
0.00113384 0.00340151 0.0107714
-0.00113384 0.00491329 0.00151178
-0.0062361 0.00188973 -0.00377945
-0.00982658 -0.0020787 -0.00132281
-0.00793685 -0.00264562 0.00736993
-0.00831479 0.0041574 -0.0147399
0.00453534 -0.0113384 0.0107714
0.00510226 -0.0096376 0.00869274
0.00434637 -0.00321253 0.00226767
0.00302356 0.00113384 -0.00188973
0.00340151 -0.00812582 0.0062361
0.0041574 -0.0143619 0.0126612
0.000944863 0.0177634 -0.0168186
0.0128501 -0.0164406 -0.000188973
-0.00491329 0.00548021 -0.00566918
-0.0062361 0.00793685 -0.00642507
-0.00302356 -0.00869274 0.00302356
-0.000188973 0.0529123 -0.0217318
0 0.0708647 -0.0328812
-0.00604712 -0.0771008 0.0334482
-0.00491329 -0.061983 0.027779
-0.000566918 0.0311805 -0.0115273
0.00226767 0.0859825 -0.034771
0.00340151 -0.0678412 0.0213539
-0.0103935 0.0260782 -0.0185193
-0.0113384 0.00113384 0.0228657
-0.00170075 -0.0062361 0.0408181
-0.00132281 -0.00907068 -0.00585815
0.00566918 0.00548021 0.0154958
0.00113384 0.00831479 -0.00113384
-0.0147399 -0.00396842 -0.0062361
-0.0113384 -0.00529123 0.00907068
0.0062361 -0.0119053 0.0109604
0.00491329 -0.000377945 -0.000566918
0.00264562 -0.00869274 0.00604712
0.00396842 -0.0196532 0.0173855
0.0156847 0.0268341 -0.013795
-0.00340151 0.027779 -0.027779
-0.0107714 0.0130391 -0.0213539
0.0181414 -0.0168186 -0.00396842
0.0041574 -0.0255113 0.020976
0.0309915 -0.020787 -0.00812582
-0.00944863 -0.139651 0.0593374
-0.00793685 -0.119998 0.0523454
0.000566918 0.0561249 -0.0224877
0.00566918 0.149099 -0.0614161
0.00472431 -0.0716206 0.0177634
Vibration 14
-0.0183303 -0.000566918 -0.00869274
-0.0179524 -0.00982658 -0.00944863
-0.00982658 -0.0151178 -0.00566918
-0.00188973 -0.0103935 -0.00396842
-0.00113384 -0.000377945 -0.00359048
-0.00982658 0.00396842 -0.00736993
0.0096376 0.00566918 0.00548021
-0.00925966 0.0134171 -0.00831479
-0.00869274 0.0221098 -0.0103935
-0.0141729 -0.00340151 -0.00302356
-0.0260782 0.00529123 -0.0147399
-0.00321253 -0.0075589 -0.000188973
0.0287238 -0.0281569 0.0239995
0.041385 -0.0372276 0.0353379
0.0192752 -0.0241885 0.0217318
0.055369 -0.0432747 0.041574
-0.0100155 -0.020409 0.00170075
-0.0166296 -0.0190862 0.00566918
-0.0175745 -0.00812582 0.0062361
-0.0126612 0.00151178 0.00283459
-0.00529123 -0.00718096 0.00510226
-0.00453534 -0.0183303 0.00434637
-0.0149288 0.0241885 -0.00396842
-0.0595264 0.0198421 -0.0563138
0.0119053 0.00548021 0.013795
0.0096376 0.0187083 -0.00718096
0.00850377 0.00831479 -0.00434637
0.0075589 0.00718096 -0.00321253
0.00699199 0.00944863 -0.00321253
0.00888171 0.00869274 -0.00529123
0.00831479 0.00869274 -0.00604712
0.00736993 0.00850377 -0.00566918
0.00699199 0.00736993 -0.00396842
0.00774788 0.000566918 0
0.00869274 0.048188 -0.0279679
0.0111494 0.00982658 0.0353379
-0.0243775 -0.013795 -0.0115273
0.0096376 0.0109604 0.0304246
-0.0531013 0.0224877 -0.0349599
-0.0111494 -0.00132281 -0.00793685
0.0706758 -0.0565028 0.0574477
0.0292908 -0.0315584 0.0308025
-0.0213539 -0.0251334 0.00661404
-0.0224877 -0.00548021 0.0075589
-0.000377945 -0.00359048 0.00604712
0.000566918 -0.0234326 0.00510226
0.00151178 0.0332592 -0.00340151
-0.0255113 0.0325033 -0.00831479
-0.0221098 0.0266451 -0.00585815
-0.075589 0.0319364 -0.076156
-0.0198421 0.061794 -0.14721
-0.162327 0.00982658 -0.013606
0.00982658 0.0100155 -0.0062361
0.00850377 0.0096376 -0.00718096
0.00680301 0.00925966 -0.00661404
0.0062361 0.00680301 -0.00359048
0.00812582 0.00113384 -0.00132281
Vibration 15
0.00113384 0.00075589 -0.00566918
0.000566918 0.00907068 -0.0117163
-0.00661404 0.0134171 0.00585815
-0.0145509 0.00831479 0.0334482
-0.0143619 0.000566918 0.0319364
-0.00718096 -0.00245664 0.00944863
-0.0126612 0.00434637 0.0532903
-0.00793685 -0.0215429 -0.000566918
-0.00925966 -0.048377 -0.0105825
0.00472431 -0.00113384 -0.0075589
0.00680301 -0.00642507 -0.00170075
0.00264562 -0.00434637 0.000944863
-0.00321253 0.00321253 -0.00264562
-0.00396842 0.00812582 -0.00699199
0.000377945 0.00510226 -0.00925966
-0.0107714 0.00680301 -0.00075589
-0.00774788 0.0221098 -0.00377945
-0.00396842 0.0255113 -0.0100155
-0.00302356 0.0151178 -0.00869274
-0.00642507 0.000944863 -0.000944863
-0.0119053 0.00907068 -0.00434637
-0.0126612 0.0200311 -0.00585815
-0.00359048 -0.0281569 0.0132281
0.00359048 0.00566918 0.013984
-0.00529123 -0.000944863 0.0655735
0.00151178 -0.00944863 0.00283459
-0.0173855 -0.0226767 -0.0109604
-0.00321253 -0.00944863 -0.0185193
0.00151178 -0.0332592 -0.0714316
-0.0177634 -0.0222988 0
-0.00529123 0.00321253 0.00340151
0.00907068 0.0258892 -0.0102045
0.0122832 0.0181414 -0.0177634
0.0793685 -0.020976 -0.0984547
0.0319364 0.0119053 -0.0196532
-0.00075589 0.013795 0.101289
0.00642507 0.0120942 -0.0279679
-0.0113384 0.0177634 0.0946753