[Molden Format]
[FREQ]
-1443.4
12.7
20.2
23.2
25.6
31.5
36.6
41.9
47.0
52.5
62.4
64.5
79.2
87.1
102.1
108.9
130.3
136.0
141.2
167.5
176.8
186.5
204.8
211.5
231.8
240.2
248.4
264.6
282.6
296.7
300.7
316.1
327.4
336.3
350.6
356.1
363.6
371.9
409.6
420.7
433.6
460.6
490.0
496.8
503.0
515.7
518.6
521.3
533.8
555.1
585.5
603.6
608.9
616.5
619.8
631.5
652.2
662.4
670.3
681.1
710.1
723.3
742.7
767.4
782.6
797.3
801.7
818.0
829.1
857.1
879.8
882.9
893.4
896.1
902.2
938.6
959.3
972.0
1000.6
1008.1
1009.7
1016.2
1016.9
1021.6
1033.3
1041.4
1057.3
1070.3
1079.3
1081.8
1105.6
1125.4
1173.1
1177.4
1182.8
1185.4
1189.0
1203.0
1204.9
1222.8
1245.0
1262.0
1269.8
1275.0
1284.2
1285.8
1289.6
1297.8
1300.4
1308.3
1324.8
1330.4
1330.8
1332.0
1346.6
1352.0
1355.1
1365.1
1377.6
1390.5
1410.1
1421.7
1434.3
1449.1
1493.9
1518.2
1523.3
1528.2
1538.2
1571.9
1589.5
1607.4
1616.1
1653.8
1696.1
1697.2
1697.4
1703.3
1706.8
1708.9
1720.7
1744.5
1810.6
2252.3
2291.4
2652.2
2652.8
2666.5
2673.7
2728.0
2743.5
2744.6
2746.7
2749.6
2752.3
2756.6
2757.1
2761.7
2763.8
2764.0
2766.3
2767.4
2769.1
2771.8
2779.5
       
[FR-COORD]
C -2.26994 -3.34822 0.217885
C 0.343552 -3.34822 0.217885
C 1.65464 -1.00779 0.217885
N 0.489439 1.23475 0.269097
C -2.09212 1.35663 0.306514
C -3.5421 -1.02707 0.237539
N -3.40188 3.53114 0.287994
C -6.05128 -0.318608 0.0958091
N -7.65755 1.25894 -0.0113384
C -3.71652 -5.70584 0.18765
C -3.18022 -7.54927 -1.64047
C -4.54328 -9.78084 -1.70227
C -6.44945 -10.1701 0.109226
C -6.99595 -8.36336 1.95228
C -5.61419 -6.12555 1.97098
O -7.62429 -12.4297 -0.161005
C 4.43368 -0.917273 0.155524
C 5.72436 0.895352 1.57849
C 8.34975 1.00401 1.50063
C 9.70034 -0.683136 -0.0147399
C 8.40361 -2.48386 -1.45188
C 5.78086 -2.60404 -1.36759
C 12.5106 -0.550288 -0.139273
C -9.60756 -13.0089 1.55657
C 2.66621 5.16046 -4.44596
C -2.41866 5.97701 0.325789
C 0.130391 6.48422 1.4069
C 2.1815 6.95325 -0.190484
C 1.82888 6.97177 -2.92227
C 0.442574 6.46267 4.02039
C 2.82514 6.90714 5.04935
C 4.87946 7.37617 3.46765
C 4.56426 7.40243 0.854723
O 0.553312 8.96562 -3.99904
O -3.79136 7.64508 -0.445597
O 3.51546 3.62449 -5.75781
H 1.40199 -5.10396 0.259081
H -6.63464 3.36674 -0.0901399
H -1.69093 -7.20874 -3.02866
H -4.17214 -11.2293 -3.11238
H -8.45785 -8.67422 3.35483
H -6.00612 -4.70126 3.4102
H 4.65855 2.24329 2.73141
H 9.3447 2.41583 2.61406
H 9.45071 -3.78607 -2.6477
H 4.77742 -3.99224 -2.51201
H 13.3386 0.459959 1.47342
H 13.1253 0.444842 -1.86176
H 13.3821 -2.43529 -0.182925
H -10.2096 -14.8878 0.905746
H -11.159 -11.6526 1.38044
H -8.8991 -13.1092 3.49694
H -1.1635 6.08926 5.25098
H 3.07893 6.88711 7.08836
H 6.73536 7.73181 4.27777
H 6.16259 7.78454 -0.383425
H -1.15708 9.05783 -3.1925

[FR-NORM-COORD]
Vibration 1
-0.0124722 0.00718096 0.000188973
0.0096376 0.00850377 0.000566918
-0.00245664 -0.0134171 0.000944863
-0.0151178 0.0158737 0.00170075
0.00170075 -0.0362827 -0.00453534
0.0188973 0.0122832 -0.00075589
-0.0474321 0.0241885 -0.00529123
-0.0372276 -0.00888171 0.000944863
-0.0200311 -0.048377 -0.00075589
0.00075589 0.000566918 0
0.000188973 0.000188973 0
0.000188973 0 0
0 0.000188973 -0.000188973
0.000377945 -0.000188973 0.000188973
-0.000188973 0 0.000188973
0 -0.000188973 0
-0.00151178 0.000944863 -0.000377945
-0.000377945 0 -0.000188973
-0.000188973 0 0
0.000188973 0 0
-0.000188973 0 0.000188973
0 0.000377945 0
0 0 0
0 0 0
0.000944863 -0.000188973 -0.000566918
0.00151178 0.0075589 0.0020787
-0.00132281 -0.00548021 -0.00226767
0 0 -0.00075589
-0.00132281 -0.000566918 0.000566918
-0.000566918 -0.000566918 -0.000188973
-0.000566918 0.000188973 -0.000377945
-0.000188973 0 0
-0.000188973 0.000188973 0.000188973
0.000377945 -0.000188973 -0.00075589
-0.00302356 0 0.000188973
-0.000188973 0.000377945 0.000377945
-0.00283459 -0.00170075 -0.00170075
1.49062 0.426322 0.119998
-0.00170075 0 -0.000566918
-0.000377945 0.00113384 -0.000377945
-0.00132281 0.00170075 -0.00075589
-0.00396842 0.0041574 -0.00377945
0.00075589 -0.00151178 0.000566918
0.000188973 -0.00075589 0.000377945
0.000188973 -0.000377945 0.000188973
0.000188973 -0.000188973 -0.000377945
0.000188973 -0.000188973 0
0.000377945 -0.000188973 0
0.000188973 -0.000188973 0
-0.000377945 0.000566918 0.000377945
0 0.00075589 -0.000377945
-0.000188973 0.000188973 -0.000188973
0.000566918 -0.000566918 0.00283459
-0.000188973 0 0.000377945
0.000944863 -0.000566918 0.000377945
0.000188973 0.000188973 -0.000188973
0.00453534 0.00907068 0.00377945
Vibration 2
-0.00302356 -0.00359048 -0.00850377
-0.00321253 -0.00321253 -0.00925966
-0.00340151 -0.00302356 -0.0177634
-0.00340151 -0.00302356 -0.0230547
-0.00359048 -0.00321253 -0.0222988
-0.00321253 -0.00359048 -0.0168186
-0.00321253 -0.00321253 -0.0270231
-0.00321253 -0.00396842 -0.020976
-0.00302356 -0.0041574 -0.0268341
-0.00283459 -0.00377945 0.00283459
-0.00170075 -0.013984 0.0134171
-0.00075589 -0.0149288 0.0258892
-0.000944863 -0.00548021 0.02759
-0.00245664 0.00491329 0.0170075
-0.00321253 0.00548021 0.00453534
0.000377945 -0.00774788 0.0406291
-0.00340151 -0.00340151 -0.020787
-0.00151178 -0.000566918 -0.0258892
-0.00170075 -0.00075589 -0.0294797
-0.00359048 -0.00377945 -0.027779
-0.00548021 -0.00680301 -0.0224877
-0.00529123 -0.00661404 -0.0188973
-0.00377945 -0.00396842 -0.0317474
0.00113384 0.000566918 0.0444086
0.0449755 0.0393063 0.0145509
-0.00151178 -0.00377945 -0.0226767
-0.0113384 -0.00642507 0.00188973
0.00188973 0.00774788 0.0228657
0.0264562 0.0262672 0.0198421
-0.0336371 -0.0241885 0.00453534
-0.0432747 -0.0281569 0.0283459
-0.0302356 -0.0143619 0.0493218
-0.00774788 0.00377945 0.0468652
0.0309915 0.0304246 0.0224877
0.00718096 -0.00302356 -0.0360938
0.0616051 0.0514005 0.0109604
-0.00283459 -0.00283459 -0.00340151
-0.00188973 -0.00453534 -0.0323143
-0.00151178 -0.0213539 0.0119053
0.000188973 -0.0228657 0.034204
-0.00283459 0.0124722 0.0183303
-0.00434637 0.013606 -0.00359048
-0.000188973 0.00132281 -0.0268341
-0.000188973 0.00151178 -0.0336371
-0.00699199 -0.00925966 -0.020976
-0.00680301 -0.00888171 -0.0147399
-0.00170075 -0.00132281 -0.034393
-0.0062361 -0.00661404 -0.0340151
-0.00377945 -0.00396842 -0.0298577
0.00321253 -0.00396842 0.0559359
-0.000188973 -0.0020787 0.0360938
0.00132281 0.0132281 0.0449755
-0.0436527 -0.0353379 -0.0119053
-0.0608492 -0.0425188 0.0304246
-0.0376055 -0.0177634 0.0678412
0.00226767 0.0149288 0.0633058
0.0228657 0.0192752 0.00661404
Vibration 3
0.00245664 -0.0075589 0.00283459
0.00245664 -0.00888171 0.00793685
0.00472431 -0.00982658 0.00434637
0.00529123 -0.00888171 -0.000566918
0.00566918 -0.00774788 -0.0020787
0.0041574 -0.00680301 -0.00245664
0.00566918 -0.0075589 -0.00170075
0.00453534 -0.00566918 -0.00548021
0.00510226 -0.00529123 -0.00699199
0.00132281 -0.00680301 0.00321253
0.00793685 -0.0120942 0.0102045
0.00661404 -0.0111494 0.0100155
-0.00188973 -0.00510226 0.00226767
-0.00850377 0 -0.00453534
-0.00680301 -0.00113384 -0.0041574
-0.00264562 -0.00472431 0.00283459
0.00472431 -0.0130391 0.00850377
0.00321253 0.0143619 -0.0247554
0.00359048 0.00869274 -0.0171965
0.00680301 -0.0258892 0.0239995
0.00907068 -0.0532903 0.0563138
0.00831479 -0.0461093 0.047999
0.0075589 -0.0334482 0.0340151
-0.0120942 0.0020787 -0.00604712
-0.0234326 0.0661404 -0.0319364
0.00283459 -0.00718096 0.00321253
0.00604712 -0.00529123 -0.00510226
-0.00585815 0.0228657 -0.0119053
-0.0217318 0.047999 -0.0096376
0.020787 -0.0291018 -0.00699199
0.0234326 -0.0230547 -0.0158737
0.0115273 0.0062361 -0.0226767
-0.00302356 0.0287238 -0.020787
-0.0353379 0.0538572 0.0175745
-0.00245664 -0.00661404 0.0130391
-0.0249444 0.0812582 -0.0506447
0.000566918 -0.00982658 0.0147399
0.00566918 -0.00529123 -0.00359048
0.0141729 -0.0168186 0.0158737
0.0117163 -0.0151178 0.0153068
-0.0151178 0.00472431 -0.0102045
-0.0119053 0.00264562 -0.00925966
0.00113384 0.0396842 -0.055369
0.00170075 0.0306136 -0.0432747
0.0111494 -0.0803134 0.0878723
0.0111494 -0.0680301 0.0721875
0.00340151 -0.0315584 0.0349599
0.0158737 -0.0385504 0.0340151
0.00396842 -0.0351489 0.041196
-0.0109604 0.000944863 -0.00396842
-0.0096376 0.00340151 -0.0177634
-0.0222988 0.00661404 -0.0020787
0.0300466 -0.0517785 -0.00170075
0.0349599 -0.041385 -0.0175745
0.013606 0.0113384 -0.0294797
-0.0124722 0.0515895 -0.0260782
-0.0321253 0.0376055 0.0268341
Vibration 4
-0.00661404 0.00585815 -0.0154958
-0.00680301 0.00340151 -0.0190862
-0.00529123 0.00264562 -0.0120942
-0.00377945 0.00321253 -0.00888171
-0.00396842 0.00491329 -0.00925966
-0.00548021 0.00604712 -0.0100155
-0.0020787 0.00604712 -0.00661404
-0.00548021 0.0075589 -0.00491329
-0.00434637 0.00869274 -0.00132281
-0.00699199 0.00585815 -0.013795
-0.0489439 0.0309915 -0.0510226
-0.0459203 0.0287238 -0.0447865
0.0020787 0.00132281 -0.000188973
0.0434637 -0.0224877 0.0353379
0.0377945 -0.0188973 0.027779
0.0020787 0.00075589 0.00302356
-0.00491329 -0.000377945 -0.00302356
-0.00774788 -0.0111494 0.0130391
-0.00699199 -0.0177634 0.0272121
-0.00377945 -0.0132281 0.0251334
-0.00113384 -0.00113384 0.0075589
-0.00188973 0.00510226 -0.00642507
-0.00245664 -0.0217318 0.0421409
0.0568808 -0.0317474 0.05518
-0.000566918 0.0100155 -0.0075589
0.000566918 0.00491329 -0.00453534
0.00132281 0.000377945 -0.0041574
0.00170075 0.000944863 -0.00359048
0.00113384 0.00736993 -0.00340151
0.00170075 -0.00510226 -0.0041574
0.00264562 -0.0107714 -0.00377945
0.00302356 -0.0107714 -0.00321253
0.00264562 -0.00491329 -0.00302356
0.00302356 0.0109604 0.00113384
0.00245664 0.00736993 -0.00264562
-0.0020787 0.0120942 -0.0109604
-0.00850377 0.0020787 -0.0262672
-0.00264562 0.00812582 -0.00151178
-0.0840928 0.0517785 -0.0833369
-0.0788016 0.0476211 -0.0725655
0.0793685 -0.0432747 0.0682191
0.0699199 -0.0364717 0.0538572
-0.0102045 -0.0145509 0.0145509
-0.00907068 -0.0268341 0.0404401
0.00170075 0.00321253 0.00529123
0.000188973 0.0141729 -0.0192752
-0.00888171 -0.0257003 0.0478101
0.0111494 -0.0224877 0.0466762
-0.00850377 -0.0247554 0.0459203
0.0468652 -0.0262672 0.0489439
0.0445975 -0.0374166 0.11962
0.11584 -0.0532903 0.0325033
0.00151178 -0.00529123 -0.00472431
0.00302356 -0.0151178 -0.00377945
0.00377945 -0.0153068 -0.00283459
0.00302356 -0.00491329 -0.00264562
0.00321253 0.0107714 0.00151178
Vibration 5
-0.00321253 0.00529123 -0.0168186
-0.00283459 0.00566918 -0.0164406
-0.00340151 0.00548021 -0.0111494
-0.00264562 0.00548021 -0.00831479
-0.00264562 0.00566918 -0.0111494
-0.00264562 0.00566918 -0.0171965
-0.0020787 0.0062361 -0.0062361
-0.00226767 0.00699199 -0.0185193
-0.00151178 0.00774788 -0.0164406
-0.00151178 0.00434637 -0.0105825
0.0217318 -0.0160627 0.0168186
0.0283459 -0.020598 0.0294797
0.0103935 -0.00396842 0.0141729
-0.0151178 0.0175745 -0.0147399
-0.020787 0.0211649 -0.0268341
0.0213539 -0.0117163 0.0311805
-0.00321253 0.00453534 -0.0041574
-0.00472431 -0.0283459 0.0383614
-0.00396842 -0.0326923 0.0495108
-0.00302356 -0.00188973 0.0160627
-0.00245664 0.0330702 -0.0283459
-0.00283459 0.0355268 -0.0379835
-0.00226767 -0.00680301 0.0283459
0.0062361 0.00302356 0.0185193
-0.0192752 0.00812582 -0.0109604
0.000377945 0.00529123 0.00548021
0.0041574 -0.00491329 0.00151178
0.00170075 -0.00680301 -0.00226767
-0.00680301 0.00566918 -0.00113384
0.0111494 -0.0154958 0.000566918
0.0158737 -0.0294797 -0.00434637
0.013606 -0.0326923 -0.00831479
0.00642507 -0.0211649 -0.00718096
-0.00226767 0.0151178 0.0111494
0.000566918 0.0109604 0.0177634
-0.0304246 0.0096376 -0.0196532
-0.00151178 0.0062361 -0.0181414
-0.00226767 0.00793685 -0.00850377
0.0351489 -0.0291018 0.0279679
0.0472432 -0.0366607 0.0510226
-0.0302356 0.0315584 -0.0272121
-0.0398732 0.0370386 -0.0478101
-0.00566918 -0.0504557 0.0627389
-0.00453534 -0.0595264 0.0839038
-0.00132281 0.0580146 -0.0546131
-0.00302356 0.0625499 -0.0706758
-0.0062361 -0.0158737 0.0359048
0.0075589 -0.00132281 0.0351489
-0.00718096 -0.00925966 0.0241885
0.0221098 -0.00907068 0.0387394
0.00170075 -0.00680301 -0.0170075
-0.013984 0.0338261 0.02759
0.0128501 -0.0132281 0.00359048
0.0213539 -0.0377945 -0.00510226
0.0173855 -0.0442196 -0.0120942
0.00491329 -0.0239995 -0.0102045
0.000188973 0.0179524 0.0162516
Vibration 6
-0.013795 0.0153068 -0.00944863
-0.013795 0.0113384 -0.00491329
-0.00869274 0.00831479 -0.00510226
-0.00491329 0.0105825 -0.00359048
-0.00453534 0.0147399 -0.00340151
-0.0096376 0.0173855 -0.00925966
-0.00132281 0.0168186 0.00113384
-0.00793685 0.0226767 -0.0113384
-0.00491329 0.0257003 -0.0102045
-0.0105825 0.0134171 -0.0130391
0.0124722 0.00661404 0.000188973
0.0298577 -0.00396842 0.00585815
0.0232436 -0.00774788 -0.00188973
-0.00510226 0.0020787 -0.0200311
-0.0219208 0.0126612 -0.0255113
0.047999 -0.0219208 0.0100155
-0.00869274 -0.00170075 -0.00812582
0.000566918 0.0102045 -0.0315584
0.00113384 -0.00491329 -0.0317474
-0.00680301 -0.0330702 -0.00736993
-0.0156847 -0.0442196 0.0145509
-0.0162516 -0.0279679 0.013795
-0.00585815 -0.0523454 -0.00491329
0.0515895 -0.0332592 0.0103935
-0.0128501 -0.0190862 0.0173855
-0.000188973 0.0160627 0.00869274
-0.000188973 0.0134171 0.0102045
0.00151178 0.00453534 0.0096376
0.00132281 -0.00585815 0.0096376
-0.00226767 0.0228657 0.0103935
-0.00226767 0.0241885 0.0100155
-0.00075589 0.0160627 0.00982658
0.00113384 0.0062361 0.00925966
0.0128501 -0.00245664 0.00188973
0.00075589 0.0187083 0.0130391
-0.0253223 -0.0309915 0.0234326
-0.0173855 0.00907068 -0.00151178
-0.00113384 0.0241885 -0.00302356
0.0179524 0.00925966 0.00661404
0.0495108 -0.0102045 0.0173855
-0.013795 0.00151178 -0.0291018
-0.0432747 0.0196532 -0.0381725
0.00718096 0.0302356 -0.048566
0.00812582 0.00453534 -0.0498888
-0.0219208 -0.0657625 0.0325033
-0.0226767 -0.0368497 0.0300466
-0.00170075 -0.0432747 -0.0126612
0.00283459 -0.0714316 -0.0128501
-0.0175745 -0.0582036 0.0128501
0.0795575 -0.0478101 0.0266451
0.0334482 -0.0563138 -0.00718096
0.0474321 -0.00472431 0.0134171
-0.00359048 0.0296687 0.0107714
-0.00359048 0.0315584 0.0103935
-0.00113384 0.0175745 0.00982658
0.00226767 0 0.00888171
0.0126612 0.00869274 0.000188973
Vibration 7
-0.0177634 0.00604712 0.0283459
-0.0173855 0.00434637 0.0222988
-0.0153068 0.00283459 0.0196532
-0.0124722 0.00377945 0.0202201
-0.0124722 0.00604712 0.0262672
-0.0156847 0.00718096 0.0374166
-0.00812582 0.00850377 0.0194642
-0.0151178 0.0107714 0.0478101
-0.0128501 0.0134171 0.0519675
-0.0132281 0.00359048 0.0160627
0.00718096 0.0102045 0.0145509
0.020787 0.00264562 0.00132281
0.0124722 -0.0120942 -0.0103935
-0.0105825 -0.0179524 -0.0117163
-0.0232436 -0.0100155 0.00188973
0.0302356 -0.0202201 -0.020976
-0.0154958 -0.00188973 0.0117163
-0.00642507 -0.0188973 0.0249444
-0.0062361 -0.0264562 0.0179524
-0.0160627 -0.0151178 -0.00340151
-0.0257003 0.00321253 -0.0177634
-0.0257003 0.0096376 -0.00982658
-0.0160627 -0.0236216 -0.0109604
0.0253223 -0.0383614 -0.0330702
0.0464873 0.0270231 -0.0198421
0.00170075 0.00548021 -0.0105825
0.0041574 0.00718096 -0.0170075
0.00434637 0.00585815 -0.0170075
0.0105825 0.00869274 -0.0177634
0.00548021 0.00661404 -0.0168186
0.00585815 0.00245664 -0.0166296
0.00642507 -0.00113384 -0.0168186
0.00548021 0.000944863 -0.0164406
-0.0105825 -0.00604712 -0.0196532
0.00718096 0.00170075 -0.0285349
0.0784236 0.0442196 -0.0194642
-0.0181414 0.00377945 0.0177634
-0.00982658 0.0109604 0.034393
0.0134171 0.0215429 0.0239995
0.0376055 0.00774788 0.00075589
-0.0185193 -0.0287238 -0.0222988
-0.0410071 -0.0149288 0.00188973
0.000944863 -0.0264562 0.0400622
0.00151178 -0.0406291 0.0291018
-0.0332592 0.0128501 -0.034771
-0.0338261 0.0238105 -0.0200311
-0.00831479 -0.0226767 -0.0154958
-0.0171965 -0.0294797 -0.0149288
-0.0224877 -0.0266451 -0.00907068
0.0445975 -0.0427078 -0.0383614
0.0151178 -0.0510226 -0.0408181
0.0147399 -0.034393 -0.0291018
0.00510226 0.00812582 -0.0166296
0.00585815 0.00188973 -0.0166296
0.00736993 -0.00529123 -0.0171965
0.00604712 -0.00113384 -0.0162516
-0.0100155 -0.0190862 -0.0173855
Vibration 8
-0.0171965 0.00151178 0.00566918
-0.0168186 -0.00453534 0.020409
-0.0115273 -0.00793685 0.0230547
-0.00812582 -0.00585815 0.0166296
-0.00736993 0.000377945 0.0041574
-0.0128501 0.00396842 -0.00321253
0.00075589 0.00566918 -0.00283459
-0.00982658 0.0119053 -0.0190862
-0.00340151 0.0175745 -0.0294797
-0.0185193 0.00226767 -0.00113384
-0.0128501 0.00510226 -0.00245664
-0.00510226 0.000566918 -0.00359048
-0.00283459 -0.00736993 -0.00283459
-0.0122832 -0.00793685 -0.00510226
-0.0202201 -0.00283459 -0.00434637
0.00925966 -0.013984 -0.000566918
-0.0117163 -0.00453534 0.0257003
-0.0183303 0.0162516 0.00585815
-0.0202201 0.0396842 -0.0113384
-0.0145509 0.0400622 -0.00661404
-0.00680301 0.0115273 0.0222988
-0.00548021 -0.0107714 0.0383614
-0.0173855 0.0735103 -0.0340151
0.0228657 -0.0298577 0.0096376
0.000944863 -0.00396842 -0.00812582
0.0153068 0.000188973 -0.00132281
0.0187083 -0.0143619 -0.00151178
0.0183303 -0.013606 -0.00188973
0.0156847 -0.00283459 -0.00151178
0.0222988 -0.0270231 -0.0020787
0.0247554 -0.0374166 -0.00321253
0.0238105 -0.034204 -0.00359048
0.020598 -0.0226767 -0.00302356
0.02759 0.00944863 0.00699199
0.0264562 0.00869274 -0.00264562
-0.0119053 -0.00642507 -0.013606
-0.0213539 -0.00699199 0.0279679
0.00188973 0.0147399 -0.020409
-0.0134171 0.0105825 -0.00188973
0.000188973 0.00226767 -0.00377945
-0.0132281 -0.0122832 -0.00699199
-0.0272121 -0.00340151 -0.00566918
-0.0234326 0.0160627 0.00170075
-0.0262672 0.0587705 -0.0298577
-0.00245664 0.00774788 0.0304246
0.000377945 -0.0315584 0.0585815
-0.013795 0.0803134 -0.0398732
-0.0470542 0.0852266 -0.0379835
0.00566918 0.0846597 -0.0470542
0.0370386 -0.0362827 0.0151178
0.00982658 -0.0442196 0.0151178
0.0326923 -0.020787 0.00661404
0.0232436 -0.0289128 -0.00170075
0.027401 -0.0474321 -0.00359048
0.0253223 -0.0408181 -0.0041574
0.0196532 -0.020976 -0.00359048
0.0279679 0.0154958 0.00774788
Vibration 9
-0.00548021 -0.00226767 -0.0360938
-0.00529123 -0.00472431 -0.0387394
-0.00283459 -0.0062361 -0.020598
-0.00170075 -0.00529123 -0.0041574
-0.00075589 -0.00321253 -0.00472431
-0.00302356 -0.00113384 -0.0241885
0 -0.00226767 0.0168186
-0.00264562 0.00245664 -0.0177634
-0.00151178 0.00434637 -0.00302356
-0.0096376 0.000188973 -0.0313695
-0.00982658 -0.013795 -0.0170075
-0.0102045 -0.0143619 0.000188973
-0.0103935 -0.000566918 0.00283459
-0.0141729 0.0158737 -0.0143619
-0.013795 0.0154958 -0.0315584
-0.00736993 -0.00491329 0.0245664
-0.00283459 -0.00283459 -0.0109604
-0.013795 0.0107714 -0.0173855
-0.0143619 0.020598 -0.00850377
-0.00226767 0.0149288 0.00850377
0.0096376 -0.000377945 0.0170075
0.00944863 -0.00888171 0.00680301
-0.00245664 0.0264562 0.0179524
0.00340151 0.00283459 0.0398732
0.0445975 -0.000944863 0.00548021
-0.00510226 -0.00170075 0.0366607
0.00510226 -0.00170075 0.0126612
-0.00453534 -0.00680301 -0.000944863
-0.0107714 -0.0215429 0
0.0213539 0.00812582 0.0111494
0.0266451 0.0134171 -0.00377945
0.0170075 0.00982658 -0.0173855
0.00132281 -0.00075589 -0.0153068
-0.0589595 -0.0585815 -0.0107714
-0.020976 0.00283459 0.0738883
0.0956201 0.0202201 0.013606
-0.00736993 -0.0062361 -0.0498888
-0.00151178 0.00510226 0.0198421
-0.00907068 -0.0253223 -0.0188973
-0.00925966 -0.0257003 0.0120942
-0.0168186 0.0285349 -0.0143619
-0.0154958 0.0272121 -0.0436527
-0.0228657 0.0143619 -0.0292908
-0.0238105 0.0321253 -0.0145509
0.0188973 -0.00548021 0.0308025
0.0194642 -0.020409 0.0122832
-0.0120942 0.0222988 0.0257003
-0.00132281 0.0376055 0.0247554
0.00585815 0.0306136 0.0117163
0.0105825 -0.00736993 0.0625499
-0.00434637 -0.00718096 0.0317474
0.0122832 0.02759 0.0377945
0.0285349 0.0122832 0.0219208
0.0383614 0.0211649 -0.00529123
0.0213539 0.0151178 -0.0296687
-0.00585815 -0.00340151 -0.0255113
-0.0491329 -0.0714316 0.00982658
Vibration 10
-0.00491329 0 -0.0160627
-0.00453534 0.00226767 -0.0510226
-0.00548021 0.00264562 -0.0496998
-0.0075589 0.00151178 -0.0417629
-0.00699199 0.000188973 -0.00907068
-0.00680301 -0.00075589 0.0168186
-0.00491329 0.00132281 0.0075589
-0.0096376 -0.000944863 0.0727545
-0.0119053 -0.000188973 0.112439
-0.00264562 -0.00132281 -0.00944863
0.00434637 -0.00925966 0.000188973
0.00699199 -0.0109604 0.00566918
0.00075589 -0.00472431 0.000566918
-0.00699199 0.00302356 -0.00944863
-0.00831479 0.00396842 -0.013984
0.00396842 -0.00699199 0.00699199
-0.00548021 0.00944863 -0.0381725
-0.0247554 0.027401 -0.0423299
-0.0247554 0.0334482 -0.0132281
-0.00321253 0.0187083 0.0221098
0.0170075 0.00321253 0.0236216
0.0156847 -0.00075589 -0.00736993
-0.00170075 0.0213539 0.0612271
-0.00831479 0.00321253 -0.00377945
0.000566918 -0.0105825 -0.000944863
0.00718096 -0.00188973 -0.0128501
0.00642507 -0.00907068 -0.00642507
0.0107714 -0.00699199 -0.000188973
0.0173855 -0.00245664 -0.00113384
0.000377945 -0.0171965 -0.00566918
-0.0020787 -0.0200311 0.00132281
0.00151178 -0.0147399 0.0075589
0.00793685 -0.00888171 0.00680301
0.0364717 0.0100155 -0.000377945
0.0196532 0.000566918 -0.0283459
-0.013984 -0.0175745 -0.0020787
-0.00302356 0.00264562 -0.0738883
-0.0117163 -0.00188973 0.0752111
0.00774788 -0.013795 0.00264562
0.0132281 -0.0168186 0.0134171
-0.0117163 0.00812582 -0.0130391
-0.013984 0.00869274 -0.0202201
-0.0406291 0.0355268 -0.0659514
-0.0408181 0.0476211 -0.0168186
0.0334482 -0.00699199 0.0491329
0.0323143 -0.013606 -0.00642507
-0.0243775 -0.0041574 0.0890061
0.020409 0.0500777 0.0856046
0.000944863 0.0232436 0.0421409
-0.00434637 -0.000188973 0.00264562
-0.00642507 0.00283459 -0.0221098
-0.0219208 0.013795 0.00188973
-0.00245664 -0.020598 -0.0105825
-0.00699199 -0.0262672 0.00188973
-0.00075589 -0.0156847 0.0132281
0.0109604 -0.00566918 0.0113384
0.0321253 0.0156847 -0.0096376
Vibration 11
0.00245664 0.00340151 0.00170075
0.00245664 0.00585815 0.000566918
0.000188973 0.00718096 -0.00283459
-0.00226767 0.00585815 -0.00548021
-0.00245664 0.00340151 -0.00302356
0 0.0020787 0.000377945
-0.00472431 0.0020787 -0.00245664
-0.000944863 -0.00075589 0.00340151
-0.00283459 -0.00245664 0.00510226
0.00434637 0.00226767 0.00321253
0.00359048 0.00377945 0.00170075
0.00302356 0.0041574 0.000188973
0.00321253 0.00359048 0.000377945
0.00548021 0.00132281 0.00321253
0.0062361 0.000944863 0.00472431
0.00113384 0.00491329 -0.00245664
0 0.00907068 -0.00245664
-0.00132281 0.0117163 -0.00566918
-0.000566918 0.0130391 -0.00396842
0.000377945 0.0102045 0.00170075
0.00113384 0.00604712 0.00434637
0.00188973 0.00585815 0.00170075
0.00132281 -0.00925966 0.00377945
-0.00359048 0.0075589 -0.00718096
0.0020787 -0.00264562 -0.00302356
-0.00510226 0.00245664 0.00132281
-0.00340151 -0.00302356 -0.000188973
-0.00188973 -0.0100155 -0.000377945
-0.00151178 -0.00642507 -0.000377945
-0.00302356 -0.00661404 -0.000188973
-0.00075589 -0.0190862 -0.000188973
0.00113384 -0.0272121 -0.000377945
0.000377945 -0.0222988 -0.000188973
-0.00359048 -0.00680301 0.00132281
-0.00566918 0.00453534 0.00718096
0.00529123 0.00132281 -0.00548021
0.00396842 0.00680301 0.0020787
-0.00529123 -0.00151178 0.00340151
0.00302356 0.00472431 0.00132281
0.00188973 0.00529123 -0.00113384
0.00642507 0.000188973 0.00396842
0.00774788 -0.000566918 0.00661404
-0.00226767 0.013606 -0.00850377
-0.00359048 0.0160627 -0.00529123
0.0041574 0.00377945 0.0096376
0.00264562 0.00359048 0.00377945
-0.0117163 0.363016 -0.223555
0.0258892 -0.413094 -0.219964
-0.00736993 -0.0251334 0.452778
-0.00529123 0.00869274 -0.00944863
-0.000944863 0.0102045 -0.0100155
-0.00831479 0.00510226 -0.00566918
-0.00434637 -0.000377945 -0.000188973
-0.000188973 -0.0226767 -0.000377945
0.00321253 -0.0372276 -0.000566918
0.00188973 -0.0283459 -0.000188973
-0.00264562 -0.00699199 0.00283459
Vibration 12
-0.00453534 -0.013984 -0.0134171
-0.0041574 -0.0190862 -0.0170075
0.00075589 -0.0217318 0.000377945
0.00566918 -0.0192752 0.0132281
0.0062361 -0.013795 0.0103935
0.00113384 -0.0105825 0.00132281
0.0122832 -0.0105825 0.013795
0.00283459 -0.0041574 0.00548021
0.00680301 0.000188973 0.0113384
-0.0122832 -0.00944863 -0.0179524
-0.0122832 -0.0168186 -0.0105825
-0.0153068 -0.0153068 -0.00548021
-0.0187083 -0.00736993 -0.00736993
-0.0243775 0.00302356 -0.0190862
-0.0211649 0.000944863 -0.0245664
-0.0166296 -0.00982658 0.00321253
0.000944863 -0.0196532 0.00548021
-0.00510226 -0.0260782 0.0196532
-0.00566918 -0.0145509 0.0177634
-0.00075589 0.00566918 -0.000188973
0.00529123 0.0102045 -0.0115273
0.00604712 -0.00302356 -0.00812582
-0.00170075 0.0200311 -0.00831479
0.00944863 -0.0200311 0.0302356
-0.00566918 0.00718096 0.0075589
0.0171965 -0.0122832 -0.00245664
0.0130391 0.000944863 0.00132281
0.00831479 0.0243775 0.0020787
0.00699199 0.0173855 0.00188973
0.0130391 0.00566918 0.00113384
0.00661404 0.0404401 0.00132281
0.000566918 0.0685971 0.00188973
0.00151178 0.0589595 0.00151178
0.013984 0.020787 -0.000188973
0.0215429 -0.0173855 -0.0221098
-0.0168186 -0.00302356 0.0122832
-0.00736993 -0.0213539 -0.0308025
0.0124722 -0.00245664 0.0107714
-0.00850377 -0.0245664 -0.00850377
-0.013606 -0.020976 0.00075589
-0.0308025 0.0122832 -0.0238105
-0.0249444 0.00774788 -0.0321253
-0.00888171 -0.0383614 0.0302356
-0.0105825 -0.0198421 0.0289128
0.00982658 0.0249444 -0.0236216
0.0103935 0.00113384 -0.0170075
-0.00548021 0.0980768 -0.0555579
-0.00869274 -0.05518 -0.0540462
0.00812582 0.0222988 0.0767229
0.0217318 -0.0304246 0.0487549
-0.00642507 -0.0370386 0.0391173
0.0323143 -0.000566918 0.0228657
0.0179524 -0.0156847 0.00132281
0.0062361 0.0464873 0.00151178
-0.00510226 0.0975099 0.0020787
-0.00340151 0.0789905 0.00113384
0.0113384 0.020598 -0.00453534
Vibration 13
0.0149288 -0.000944863 0.00812582
0.0147399 0.00075589 0.00944863
0.0126612 0.00245664 0.0100155
0.0107714 0.00170075 0.00774788
0.0102045 -0.000377945 0.00736993
0.013795 -0.00170075 0.0126612
0.00245664 -0.00491329 0.000566918
0.0115273 -0.00888171 0.0187083
0.00585815 -0.0143619 0.0219208
0.00604712 0.00510226 -0.00170075
0.013795 -0.0020787 0.00812582
-0.00302356 0.00831479 -0.0041574
-0.0249444 0.0245664 -0.0238105
-0.0379835 0.0349599 -0.0376055
-0.0222988 0.0247554 -0.0268341
-0.0393063 0.0334482 -0.0332592
0.0132281 0.00170075 0.00831479
0.0173855 0.00283459 0.00264562
0.0175745 0.00170075 -0.00245664
0.0143619 -0.00151178 -0.00151178
0.0105825 -0.00472431 0.00566918
0.0107714 -0.00264562 0.0103935
0.013984 -0.00113384 -0.00925966
0.0542351 -0.0226767 0.0561249
-0.00434637 0.00132281 -0.0126612
-0.0109604 0 -0.00680301
-0.0147399 0.0075589 -0.00321253
-0.00699199 -0.0171965 -0.000188973
-0.00510226 -0.0096376 -0.000188973
-0.0251334 0.0230547 -0.00188973
-0.0236216 0.00264562 0.00321253
-0.0124722 -0.0357158 0.0062361
-0.00434637 -0.0436527 0.00510226
-0.00548021 -0.00472431 0.00793685
-0.0181414 -0.00944863 -0.0145509
-0.0075589 0.0128501 -0.0281569
0.0160627 0.00170075 0.00907068
0.00264562 -0.0122832 0.00907068
0.0336371 -0.0166296 0.0258892
0.00283459 0.00283459 0.00302356
-0.0614161 0.0515895 -0.0583925
-0.0321253 0.0323143 -0.0370386
0.0202201 0.00510226 0.00264562
0.0200311 0.00359048 -0.00718096
0.00774788 -0.00850377 0.00718096
0.00850377 -0.00491329 0.0149288
0.0188973 -0.0120942 -0.00491329
0.00869274 0.0105825 -0.00434637
0.0143619 -0.000566918 -0.0247554
0.0731324 -0.0364717 0.0782347
0.0119053 -0.0616051 0.128312
0.143052 -0.00944863 0.0243775
-0.0336371 0.0489439 -0.00529123
-0.0308025 0.0147399 0.0041574
-0.00982658 -0.0576366 0.00982658
0.00453534 -0.0693529 0.00850377
-0.0075589 -0.0102045 0.00377945
Vibration 14
0.00661404 0.00377945 0.0164406
0.0062361 0.0096376 0.0190862
0.000944863 0.0130391 0.00283459
-0.00453534 0.0100155 -0.00774788
-0.00510226 0.00321253 -0.0041574
0.00075589 0.00075589 0.00510226
-0.00925966 0.000944863 -0.00869274
-0.000944863 -0.00566918 0
-0.00453534 -0.00982658 -0.00680301
0.00718096 0.00377945 0.0153068
0.0147399 0.00359048 0.0177634
0.00566918 0.00982658 0.0041574
-0.00925966 0.0153068 -0.0100155
-0.0145509 0.013984 -0.0103935
-0.0062361 0.00888171 0.0020787
-0.0224877 0.0245664 -0.0285349
0.000566918 0.0166296 -0.00491329
0.00510226 0.0147399 -0.00699199
0.00566918 0.00529123 -0.00491329
0.00132281 -0.00151178 -0.00113384
-0.00396842 0.00699199 -0.00699199
-0.00434637 0.0160627 -0.00888171
0.00283459 -0.020409 0.0109604
0.0287238 -0.0128501 0.0179524
-0.00359048 -0.00699199 0.0292908
-0.00226767 -0.00170075 -0.00585815
0.000566918 -0.0156847 -0.00548021
-0.0122832 0.0338261 -0.00699199
-0.0130391 0.020598 -0.00793685
0.0194642 -0.0831479 -0.00831479
0.0215429 -0.0820141 -0.0132281
0.00188973 0.000566918 -0.0141729
-0.0149288 0.0578256 -0.0115273
-0.0221098 -0.00170075 -0.0336371
0.00585815 0.00510226 -0.00453534
0.0158737 -0.0372276 0.0774788
0.0107714 0.0126612 0.0300466
-0.00925966 -0.00774788 -0.00925966
0.0272121 -0.000944863 0.0298577
0.00982658 0.0102045 0.00491329
-0.0264562 0.0181414 -0.0221098
-0.0115273 0.00888171 0.000377945
0.00869274 0.0187083 -0.00850377
0.00982658 0.00245664 -0.00491329
-0.00774788 0.00548021 -0.00869274
-0.00888171 0.0217318 -0.0119053
0.00283459 -0.0338261 0.0192752
0.0171965 -0.0168186 0.0183303
-0.0102045 -0.0264562 0.00604712
0.0319364 -0.0132281 0.0162516
0.00982658 -0.02759 0.0704868
0.0797464 -0.0230547 -0.00113384
0.0332592 -0.138139 -0.00718096
0.0374166 -0.142485 -0.0158737
0.000377945 0.0151178 -0.0171965
-0.0294797 0.113762 -0.0132281
-0.0196532 0.00396842 -0.0281569
Vibration 15
-0.00548021 -0.00604712 0.0302356
-0.00453534 -0.00491329 0.0270231
-0.00566918 -0.00510226 -0.0171965
-0.00566918 -0.00472431 -0.041385
-0.0041574 -0.00434637 -0.0228657
-0.00529123 -0.00548021 -0.00075589
0.00151178 -0.000944863 -0.0200311
-0.00359048 -0.00151178 -0.0122832
0.000944863 0.00188973 -0.0287238
-0.00151178 -0.00944863 0.041196
0.0113384 -0.00661404 0.041196
0.0062361 -0.00226767 0.0196532
-0.0122832 -0.00434637 -0.000188973
-0.0141729 -0.0156847 0.0103935
-0.0100155 -0.0171965 0.0300466
-0.0315584 0.0107714 -0.0417629
-0.00642507 0.00396842 -0.0281569
-0.0160627 0.00831479 -0.0243775
-0.0162516 0.0100155 -0.00982658
-0.00736993 0.00812582 0.000188973
0.000944863 0.0162516 -0.0175745
0.000377945 0.0132281 -0.0311805
-0.00510226 -0.00548021 0.0374166
0.0134171 -0.0393063 -0.00736993
0.00812582 -0.00359048 -0.00850377
0.00774788 -0.00396842 0.0100155
0.0128501 -0.0113384 0.00491329
0.0132281 -0.0132281 0.00453534
0.0145509 -0.0119053 0.00472431
0.0109604 0.00982658 0.00548021