[Molden Format]
[FREQ]
-600.4
15.7
25.9
28.1
32.2
36.6
47.5
49.5
55.7
60.3
74.1
85.6
98.3
124.3
133.7
148.3
157.2
163.7
173.5
182.9
185.6
208.3
223.8
241.9
251.2
267.0
274.7
289.4
294.9
327.4
333.9
345.5
349.8
358.1
358.6
361.8
381.0
384.0
410.4
441.9
468.4
478.2
495.1
506.2
511.9
528.5
530.0
532.9
546.8
587.4
590.2
603.7
606.5
613.6
616.5
642.8
660.2
667.5
671.2
683.3
706.4
724.8
750.7
766.2
782.9
788.4
830.4
838.7
843.7
882.5
883.2
896.3
901.0
931.0
938.8
946.1
985.3
1003.6
1009.7
1010.3
1015.1
1016.8
1019.0
1031.7
1045.2
1052.9
1062.6
1064.9
1070.4
1081.3
1095.6
1126.2
1150.1
1177.5
1178.5
1184.7
1201.5
1204.6
1211.8
1221.1
1242.9
1251.5
1262.6
1264.0
1266.4
1275.4
1282.7
1286.3
1292.1
1296.2
1304.3
1321.2
1323.4
1332.9
1338.5
1342.3
1348.6
1350.2
1361.6
1364.8
1374.5
1389.9
1400.0
1423.1
1427.7
1478.1
1512.4
1516.0
1519.7
1531.1
1567.5
1582.8
1585.6
1643.3
1694.4
1696.3
1698.9
1699.8
1700.9
1708.4
1726.2
1809.0
2026.3
2451.2
2651.2
2653.8
2667.5
2672.7
2724.1
2732.0
2735.2
2737.7
2744.7
2745.9
2746.5
2751.7
2755.7
2756.7
2763.5
2765.4
2766.8
2767.2
2768.8
2779.3
2782.7
       
[FR-COORD]
C -2.61255 -2.27315 -1.28558
C 0.0718096 -2.27315 -1.28558
C 1.41767 -0.0527234 -1.28558
N 0.201067 2.26673 -1.3606
C -2.44549 2.32984 -0.944107
C -3.8626 0.0105825 -1.16898
N -3.70878 4.77326 -0.538572
C -6.52674 0.182737 -1.30051
N -8.70861 0.301411 -1.42202
C -3.94102 -4.69124 -1.4207
C -3.30608 -6.43017 -3.3193
C -4.55159 -8.72411 -3.4805
C -6.44321 -9.28271 -1.69754
C -7.08383 -7.58593 0.217696
C -5.82281 -5.28178 0.334859
O -7.50051 -11.5865 -2.0649
C 4.19651 -0.152879 -1.11872
C 5.29501 -0.519108 1.25705
C 7.9068 -0.659892 1.47531
C 9.43276 -0.44503 -0.674821
C 8.32273 -0.111116 -3.04435
C 5.70338 0.0323143 -3.27168
C 12.2333 -0.573154 -0.406102
C -9.51024 -12.2981 -0.428968
C -2.807 4.40552 1.6469
C -1.55978 4.65477 3.97504
C 1.21528 5.24418 3.73504
C 2.68927 5.16764 1.53673
C 1.69962 4.66932 -1.12193
C 2.37501 5.83434 6.03786
C 4.95354 6.32831 6.17676
C 6.41392 6.23458 3.99148
C 5.27952 5.66313 1.68771
O 3.67911 4.33446 -2.84895
O -2.49614 4.2481 6.02615
O 0.346387 6.7775 -1.83322
H 1.07091 -4.07387 -1.26309
H 4.8343 0.310293 -5.11908
H -1.83662 -5.95793 -4.68822
H -4.10524 -10.09 -4.94806
H -8.54156 -8.02075 1.59266
H -6.30942 -3.92893 1.81943
H 4.10581 -0.684648 2.93342
H 8.7689 -0.933336 3.32119
H 9.49965 0.0455424 -4.72129
H 3.729 5.70773 -4.10694
H 12.9435 0.946942 0.822787
H 13.2286 -0.401 -2.21892
H 12.8311 -2.3752 0.44333
H -10.0307 -14.1682 -1.16672
H -11.1016 -10.9863 -0.598098
H -8.85129 -12.4499 1.5252
H 1.2236 5.89349 7.76073
H 5.82017 6.78449 7.98617
H 8.43441 6.61007 4.07293
H 6.4536 5.58962 -0.0120942
H -0.859636 6.53751 -3.2456

[FR-NORM-COORD]
Vibration 1
-0.0230547 0.0402512 -0.000377945
0.0109604 0.0158737 0.0062361
-0.0102045 0.00132281 -0.00604712
0.0393063 0.0374166 -0.0444086
-0.00718096 0.106958 0.446731
-0.0105825 0.00245664 0.0587705
-0.089951 0.153635 -0.100722
0.00377945 0.00736993 0.000566918
0.00075589 0.00226767 -0.00434637
-0.00396842 0.0122832 -0.00831479
-0.00132281 0.00680301 0
0.000377945 0.00170075 0.0020787
0.00170075 0.00264562 0
0.0020787 0 -0.000188973
0.00359048 0.00245664 -0.00340151
-0.000377945 -0.00170075 -0.000188973
-0.000566918 0.00264562 -0.00321253
-0.00113384 0.000944863 -0.00340151
-0.000188973 0.00075589 -0.000566918
-0.000566918 0.00075589 0
0.00113384 0.000566918 0.000188973
0.000377945 0 -0.00075589
0.00075589 0.000188973 0.00075589
0.000566918 0.000566918 -0.00075589
0.0903289 -0.42122 -0.199744
0.0260782 -0.0340151 -0.0171965
-0.00585815 -0.00529123 -0.00491329
0.00151178 0.00925966 -0.00510226
0.00321253 -0.0338261 -0.0168186
-0.00566918 -0.00132281 -0.00245664
-0.00264562 0.00075589 -0.000377945
-0.00226767 0.000566918 0.00377945
-0.0041574 0.00283459 -0.000188973
0.0232436 0.0113384 0.00188973
-0.0251334 0.0325033 -0.0576366
-0.00869274 -0.00377945 0.00793685
-0.0166296 0.0132281 0.00566918
-0.00472431 -0.00245664 0.000377945
0.00075589 0.00925966 0.00226767
0.00302356 0.00283459 0.00359048
0.00359048 0.00170075 -0.00132281
0.0020787 0.00075589 -0.00642507
-0.00321253 -0.0122832 -0.00944863
-0.000944863 -0.00510226 -0.00321253
0.000944863 -0.00170075 0.000377945
-0.0111494 -0.00302356 -0.0105825
0.000944863 -0.00151178 0.000188973
-0.00132281 -0.000566918 -0.000377945
-0.00170075 -0.00113384 -0.00151178
-0.00151178 0.00113384 0.00113384
0.00170075 0.00188973 -0.000188973
0 0.0020787 -0.00075589
0.0124722 0.00170075 0.00585815
-0.00529123 -0.00113384 0.0020787
0.00188973 -0.00529123 0.00302356
-0.00132281 -0.00321253 -0.00321253
0.0831479 -0.00548021 -0.0718096
Vibration 2
-0.00529123 -0.0062361 0.0102045
-0.00491329 -0.0062361 0.00982658
-0.00529123 -0.0062361 0.00907068
-0.00642507 -0.00661404 0.00491329
-0.00453534 -0.00680301 0.0164406
-0.00529123 -0.00680301 0.0181414
-0.00302356 -0.00699199 0.0232436
-0.00566918 -0.00642507 0.0264562
-0.00604712 -0.00585815 0.034204
-0.00510226 -0.00585815 0.00075589
-0.00529123 0.00359048 -0.00793685
-0.00661404 0.00510226 -0.020409
-0.00774788 -0.00283459 -0.0241885
-0.00680301 -0.0128501 -0.0151178
-0.00548021 -0.0141729 -0.00245664
-0.00982658 0.000188973 -0.0376055
-0.00566918 -0.00340151 0.0160627
-0.0126612 0.0105825 0.0215429
-0.0130391 0.0160627 0.0304246
-0.00661404 0.00718096 0.034204
0.000188973 -0.0075589 0.0289128
0.000566918 -0.0128501 0.0198421
-0.00736993 0.013795 0.0438416
-0.0122832 -0.0062361 -0.0434637
0.00925966 -0.00812582 0.0179524
0.0253223 -0.0075589 0.00944863
0.020787 0.00585815 -0.0102045
0.00680301 0.00888171 -0.0196532
-0.00642507 -0.00529123 -0.0120942
0.0325033 0.0185193 -0.0192752
0.0302356 0.0349599 -0.0376055
0.0162516 0.0394953 -0.0472432
0.00453534 0.0264562 -0.0381725
-0.013606 -0.0126612 -0.0188973
0.0425188 -0.0153068 0.0156847
-0.0111494 -0.00982658 -0.0164406
-0.00510226 -0.0062361 0.0107714
0.00604712 -0.0241885 0.0156847
-0.00434637 0.00982658 -0.00491329
-0.00699199 0.0126612 -0.02759
-0.00718096 -0.0194642 -0.0175745
-0.00491329 -0.0219208 0.00472431
-0.0175745 0.0175745 0.0187083
-0.0185193 0.027401 0.034771
0.00510226 -0.0147399 0.0317474
-0.0317474 -0.0298577 -0.0379835
-0.0143619 0.0181414 0.0425188
-0.00170075 0.0113384 0.0466762
-0.00661404 0.0170075 0.0502667
-0.0147399 -0.00113384 -0.0548021
-0.0102045 -0.00283459 -0.0368497
-0.013984 -0.0188973 -0.0438416
0.0436527 0.0153068 -0.0119053
0.0394953 0.0445975 -0.0444086
0.0143619 0.0529123 -0.0616051
-0.00642507 0.0304246 -0.0459203
-0.0221098 -0.0185193 -0.00548021
Vibration 3
0.0041574 -0.00699199 0.020976
0.00396842 -0.00642507 0.0175745
0.00340151 -0.00604712 0.0151178
0.00283459 -0.00680301 0.0166296
0.00226767 -0.00566918 0.0119053
0.00340151 -0.0075589 0.0253223
0.000944863 -0.00302356 -0.0117163
0.00245664 -0.0103935 0.0396842
0.00151178 -0.0130391 0.0540462
0.00548021 -0.00736993 0.0113384
0.00529123 0.00548021 -0.00075589
0.00491329 0.00699199 -0.0170075
0.00453534 -0.00491329 -0.0211649
0.00604712 -0.0188973 -0.00831479
0.00642507 -0.0198421 0.00793685
0.00264562 -0.00113384 -0.0391173
0.00396842 -0.00793685 0.0041574
0.0164406 0.00113384 -0.000377945
0.0173855 -0.00793685 -0.0153068
0.00548021 -0.0258892 -0.0253223
-0.00699199 -0.0315584 -0.020409
-0.00774788 -0.0222988 -0.00548021
0.00642507 -0.0393063 -0.0419519
-0.00113384 -0.0103935 -0.0476211
-0.00472431 0.0188973 -0.00548021
-0.0156847 0.048566 -0.00321253
-0.0122832 0.0353379 0.00188973
-0.00396842 0.00699199 0.00850377
0.00245664 -0.00548021 0.00850377
-0.0185193 0.0519675 0.000944863
-0.0160627 0.0381725 0.00680301
-0.00718096 0.00604712 0.013984
-0.00113384 -0.00907068 0.0147399
0.00491329 -0.013795 0.0128501
-0.0266451 0.0814472 -0.00170075
0.00453534 -0.00831479 -0.00377945
0.00434637 -0.0062361 0.0160627
-0.0175745 -0.0268341 -0.00151178
0.00529123 0.0147399 0.00245664
0.00453534 0.0171965 -0.0268341
0.00642507 -0.0285349 -0.0109604
0.00718096 -0.0302356 0.0177634
0.0257003 0.0143619 0.00736993
0.0272121 -0.0020787 -0.0188973
-0.0162516 -0.0442196 -0.0279679
0.0217318 -0.0062361 0.0217318
0.0217318 -0.041574 -0.047999
-0.00340151 -0.0464873 -0.048188
0.00226767 -0.041574 -0.0434637
-0.0041574 -0.00321253 -0.0638727
0.00188973 -0.00566918 -0.0387394
-0.00396842 -0.0279679 -0.048188
-0.0255113 0.075967 -0.00453534
-0.0211649 0.0517785 0.00566918
-0.00510226 -0.00661404 0.0190862
0.00566918 -0.0338261 0.020598
0.0102045 -0.013606 -0.00774788
Vibration 4
-0.0109604 0.0128501 -0.0154958
-0.0109604 0.0096376 -0.0226767
-0.00850377 0.00793685 -0.013606
-0.00585815 0.00925966 -0.00812582
-0.00548021 0.0119053 -0.00491329
-0.00850377 0.0132281 -0.00170075
-0.00132281 0.013795 -0.00453534
-0.00944863 0.013795 0.0185193
-0.0105825 0.0134171 0.0374166
-0.0096376 0.0120942 -0.0175745
-0.0260782 0.0262672 -0.0359048
-0.0141729 0.0194642 -0.0300466
0.0156847 -0.00188973 -0.00491329
0.0279679 -0.0130391 0.00907068
0.0145509 -0.00510226 0.00226767
0.0304246 -0.00982658 0.00264562
-0.00925966 0.00151178 -0.00340151
-0.0226767 -0.0145509 0.000566918
-0.0245664 -0.0268341 0.0130391
-0.0128501 -0.0230547 0.0217318
0.000566918 -0.00529123 0.0179524
0.00226767 0.00680301 0.00529123
-0.0149288 -0.0383614 0.0353379
0.0714316 -0.0400622 0.0398732
-0.000188973 0.013984 -0.00491329
0 0.0153068 -0.00510226
0.00245664 0.00321253 -0.00491329
0.00170075 -0.000944863 -0.00529123
-0.00170075 0.00642507 -0.00529123
0.00604712 -0.00529123 -0.00453534
0.00850377 -0.0185193 -0.00434637
0.0075589 -0.0228657 -0.00472431
0.0041574 -0.013984 -0.00529123
-0.0041574 0.00566918 -0.00793685
-0.00264562 0.0236216 -0.00453534
0.00170075 0.0102045 -0.000188973
-0.0134171 0.00812582 -0.0323143
0.0128501 0.0196532 0.00226767
-0.0474321 0.0419519 -0.0532903
-0.0262672 0.0292908 -0.0428968
0.047999 -0.027779 0.0255113
0.0239995 -0.0134171 0.0128501
-0.0319364 -0.0179524 -0.00642507
-0.0349599 -0.0398732 0.0160627
0.0096376 -0.00132281 0.0247554
-0.00151178 0.00907068 -0.0041574
-0.0126612 -0.041385 0.0377945
-0.00510226 -0.0449755 0.0398732
-0.0285349 -0.0410071 0.0393063
0.0810692 -0.0445975 0.0447865
0.0515895 -0.0599043 0.0742662
0.111116 -0.0370386 0.0268341
0.00661404 -0.00151178 -0.0041574
0.0111494 -0.0251334 -0.00396842
0.00944863 -0.0332592 -0.00472431
0.00340151 -0.0175745 -0.00566918
0.000377945 0.0153068 0
Vibration 5
0.0126612 -0.0120942 -0.00453534
0.0122832 -0.0100155 -0.0149288
0.0096376 -0.00831479 -0.0109604
0.00680301 -0.00944863 -0.00736993
0.00680301 -0.0115273 -0.00850377
0.0100155 -0.0141729 0.00170075
0.00340151 -0.0119053 -0.0181414
0.00850377 -0.020598 0.020976
0.00718096 -0.0268341 0.0387394
0.00869274 -0.0105825 0.00113384
-0.0291018 0.00264562 -0.0230547
-0.0453534 0.0113384 -0.0243775
-0.0217318 0.00680301 -0.000944863
0.020787 -0.00869274 0.0272121
0.0353379 -0.0168186 0.027779
-0.0461093 0.0190862 -0.00888171
0.0096376 -0.00188973 -0.00604712
0.00396842 -0.00699199 -0.00396842
0.0041574 0.0120942 0.00510226
0.0105825 0.0366607 0.0119053
0.0164406 0.0360938 0.00925966
0.0160627 0.0160627 0
0.0107714 0.0646286 0.0228657
-0.0306136 0.020976 0.0109604
0.000188973 -0.00188973 -0.0151178
-0.00718096 0.00869274 -0.0124722
-0.0041574 -0.00264562 -0.00604712
0.00075589 -0.0109604 -0.00226767
0.00377945 -0.00736993 -0.00396842
-0.00699199 -0.00661404 -0.00359048
-0.00491329 -0.0196532 0.00245664
0.000188973 -0.0287238 0.0062361
0.00302356 -0.0243775 0.00377945
0.00377945 -0.00170075 -0.00510226
-0.0156847 0.0236216 -0.0134171
0.00188973 -0.0075589 -0.000944863
0.013606 -0.00925966 -0.0234326
0.020787 0.0160627 -0.00226767
-0.0470542 0.00642507 -0.0410071
-0.0765339 0.0222988 -0.0440306
0.041574 -0.013795 0.0474321
0.0670853 -0.0272121 0.0476211
-0.000944863 -0.0245664 -0.00907068
-0.000566918 0.00925966 0.00680301
0.0213539 0.0521564 0.013984
0.0149288 0.0126612 0.0109604
-0.0102045 0.0657625 0.0334482
0.0164406 0.0842818 0.027779
0.0262672 0.0667073 0.0160627
-0.0614161 0.0357158 -0.00453534
-0.0188973 0.0402512 0.0498888
-0.0041574 -0.0100155 -0.000377945
-0.0111494 0.000566918 -0.00642507
-0.00718096 -0.0226767 0.00434637
0.00188973 -0.0391173 0.0111494
0.00699199 -0.0323143 0.00680301
0.00793685 -0.00510226 -0.00661404
Vibration 6
-0.00566918 0.000188973 0.0103935
-0.00529123 0.00170075 0.0096376
-0.00566918 0.00188973 0.00151178
-0.00642507 0.00132281 -0.00396842
-0.00548021 0.00113384 0.00188973
-0.00548021 0.000566918 0.00888171
-0.00434637 0.00226767 -0.00132281
-0.00548021 0.00264562 0.0105825
-0.00548021 0.00548021 0.0124722
-0.00151178 -0.00188973 0.00944863
0.0313695 -0.0153068 0.0321253
0.0391173 -0.0188973 0.0291018
0.0107714 -0.00925966 0.00226767
-0.0230547 0.00377945 -0.020787
-0.0281569 0.00642507 -0.0164406
0.0215429 -0.013984 0.00188973
-0.00566918 0.00264562 0.00132281
-0.00869274 -0.020976 -0.00075589
-0.00869274 -0.0145509 0.00283459
-0.00548021 0.0158737 0.00812582
-0.00226767 0.0357158 0.00944863
-0.00245664 0.027779 0.00585815
-0.00529123 0.027401 0.0128501
-0.0115273 -0.00151178 -0.0330702
0.00151178 0.0102045 -0.00226767
0.00226767 0.0281569 -0.00434637
0.00793685 0.00170075 -0.00718096
0.00453534 -0.0096376 -0.00907068
-0.00642507 0.00188973 -0.00680301
0.0183303 -0.0158737 -0.00793685
0.0243775 -0.0461093 -0.0105825
0.0202201 -0.0576366 -0.0128501
0.0102045 -0.0391173 -0.0124722
-0.0162516 0.00699199 -0.0192752
-0.00302356 0.0595264 -0.000566918
-0.00907068 0.00453534 0.00699199
-0.0041574 0.00245664 0.0149288
0.000188973 0.0417629 0.00642507
0.0517785 -0.0224877 0.0512116
0.0659514 -0.0291018 0.0468652
-0.0447865 0.0113384 -0.041196
-0.0534792 0.0149288 -0.0321253
-0.0113384 -0.0436527 -0.00491329
-0.0113384 -0.0326923 0.00132281
0.000377945 0.0574477 0.0132281
-0.00699199 0.0257003 0.00132281
-0.0160627 0.0158737 0.0332592
-0.00226767 0.055369 0.0171965
0.00226767 0.0200311 -0.00831479
0.00453534 -0.00793685 -0.0279679
-0.00869274 -0.00359048 -0.0763449
-0.0512116 0.0151178 -0.0183303
0.0215429 -0.00548021 -0.00604712
0.0321253 -0.0602823 -0.0107714
0.0247554 -0.0810692 -0.0149288
0.00661404 -0.0493218 -0.0145509
-0.00850377 0.0113384 0.00491329
Vibration 7
-0.00434637 0.00113384 -0.000188973
-0.0041574 -0.00151178 0.000188973
-0.0020787 -0.00302356 0.00075589
0.000188973 -0.00170075 0.000944863
0.000188973 0.000944863 0.000377945
-0.0020787 0.00226767 0.00075589
0.00321253 0.00264562 -0.00132281
-0.0020787 0.00548021 0.00245664
-0.00188973 0.00831479 0.00434637
-0.00548021 0.00170075 -0.0020787
-0.00170075 0.00113384 -0.000566918
0.000944863 -0.000188973 -0.00075589
-0.000566918 -0.000944863 -0.00264562
-0.00604712 0.000377945 -0.00566918
-0.00831479 0.00170075 -0.00529123
0.00377945 -0.00321253 -0.00132281
-0.0020787 -0.00396842 -0.000188973
0 0.00944863 0.000944863
0.000377945 0.013984 -0.000377945
-0.00151178 0.00377945 -0.00264562
-0.00359048 -0.0105825 -0.00359048
-0.00396842 -0.0141729 -0.00245664
-0.000377945 0.0311805 -0.00132281
0.00680301 -0.00736993 0.000377945
0.00170075 0.00283459 -0.000566918
0.000377945 0.00283459 0
0.00188973 -0.00321253 0.00132281
0.00245664 -0.0041574 0.00170075
0.00321253 -0.00340151 0.00113384
0.00226767 -0.0075589 0.00226767
0.00302356 -0.0119053 0.00359048
0.00321253 -0.0109604 0.00359048
0.00283459 -0.00699199 0.00283459
0.00434637 -0.00661404 0.00321253
-0.0020787 0.00736993 -0.000188973
0.00661404 -0.00188973 -0.000566918
-0.00585815 -0.00245664 0.000377945
-0.00566918 -0.0243775 -0.00302356
-0.000188973 0.00170075 0.00113384
0.00434637 -0.00075589 0.000944863
-0.00812582 0.000188973 -0.00793685
-0.0122832 0.00245664 -0.00718096
0.00132281 0.0168186 0.00264562
0.00188973 0.0268341 0.00075589
-0.00491329 -0.0177634 -0.00529123
0.00151178 -0.0126612 -0.00321253
0.0168186 0.326545 -0.374166
-0.0168186 -0.412149 -0.0525344
0.000944863 0.235271 0.427078
0.0124722 -0.0102045 0.00340151
0.00245664 -0.0126612 -0.000944863
0.00793685 -0.00245664 0.000566918
0.00188973 -0.00736993 0.0020787
0.00321253 -0.0156847 0.00434637
0.00359048 -0.0132281 0.00453534
0.00302356 -0.00604712 0.00283459
0.00529123 -0.00113384 0.000377945
Vibration 8
-0.0154958 0.000944863 0.00302356
-0.0151178 -0.0102045 0.0132281
-0.00661404 -0.0156847 0.0130391
0.0020787 -0.0109604 0.0105825
0.00170075 0 0.00491329
-0.00680301 0.00566918 -0.000566918
0.0113384 0.00548021 0.000377945
-0.00548021 0.0171965 -0.0145509
-0.0041574 0.027401 -0.02759
-0.0217318 0.00472431 -0.00661404
-0.0192752 0.00888171 -0.00982658
-0.0128501 0.00566918 -0.0117163
-0.00831479 -0.00264562 -0.00925966
-0.0173855 -0.00302356 -0.0120942
-0.0245664 0.00113384 -0.0111494
0.00566918 -0.00982658 -0.00548021
-0.00642507 -0.0181414 0.00812582
0.00434637 0.0228657 0.00907068
0.00661404 0.047999 0.00151178
-0.00283459 0.0313695 -0.00680301
-0.0143619 -0.020787 -0.00888171
-0.0160627 -0.0445975 -0.00113384
-0.000566918 0.0682191 -0.0143619
0.0355268 -0.0357158 0.0194642
0.00699199 0.00510226 0.0020787
0.00491329 0.00869274 0.00283459
0.00736993 -0.00113384 0.00434637
0.00944863 -0.0111494 0.00604712
0.0115273 -0.0162516 0.00604712
0.00661404 0.00170075 0.00396842
0.00774788 -0.00453534 0.00548021
0.0096376 -0.0134171 0.00718096
0.0103935 -0.0168186 0.0075589
0.0130391 -0.0296687 0.0102045
0.000944863 0.0198421 0.00321253
0.020976 -0.0130391 -0.00264562
-0.0224877 -0.0141729 0.0183303
-0.0255113 -0.0799354 -0.0020787
-0.020787 0.013984 -0.00982658
-0.00982658 0.00831479 -0.0130391
-0.0185193 -0.00661404 -0.0143619
-0.0311805 0.000566918 -0.0128501
0.0119053 0.0383614 0.0156847
0.0154958 0.08277 0.00245664
-0.0217318 -0.0402512 -0.0158737
0.0196532 -0.034771 0.00491329
-0.0219208 0.0283459 0.0466762
-0.00510226 0.157792 -0.00850377
0.02759 0.0421409 -0.0884392
0.054991 -0.0453534 0.0298577
0.0141729 -0.0597153 0.034204
0.0595264 -0.0213539 0.0124722
0.00491329 0.00944863 0.00264562
0.00699199 -0.00226767 0.00510226
0.0102045 -0.0177634 0.00793685
0.0119053 -0.0241885 0.00888171
0.020976 -0.0128501 -0.00264562
Vibration 9
-0.00264562 0.00604712 -0.0143619
-0.00170075 0.00453534 -0.0321253
0.000377945 0.00245664 -0.0232436
0.00340151 0.00453534 -0.0171965
0.0041574 0.00699199 -0.0153068
0.000566918 0.00680301 0.00340151
0.0075589 0.0103935 -0.0232436
-0.0020787 0.0117163 0.0600933
-0.00491329 0.0185193 0.117919
-0.00113384 0.00510226 -0.0075589
0.0183303 -0.00982658 0.0120942
0.0243775 -0.0134171 0.0194642
0.0075589 -0.00170075 0.00529123
-0.0132281 0.0130391 -0.0149288
-0.0160627 0.0147399 -0.0200311
0.0151178 -0.00661404 0.0145509
0.000188973 0.000566918 -0.0153068
-0.00680301 0.0366607 -0.00661404
-0.00736993 0.0400622 0.00283459
-0.00151178 0.00604712 0.00377945
0.00510226 -0.0315584 -0.00472431
0.00585815 -0.0323143 -0.013984
-0.00245664 0.00793685 0.013795
-0.0120942 0.0119053 -0.0105825
-0.00245664 0.0109604 -0.0192752
-0.00736993 -0.0175745 -0.0147399
-0.00736993 -0.0160627 -0.00396842
-0.0020787 -0.00113384 -0.00113384
0.0100155 0.00075589 -0.00642507
-0.0151178 -0.0281569 0.00283459
-0.0173855 -0.0196532 0.0122832
-0.0128501 0.00283459 0.0143619
-0.00491329 0.0119053 0.00831479
0.0215429 -0.00642507 0.00869274
-0.0117163 -0.0430858 -0.0215429
0.0200311 0.00340151 -0.0170075
-0.00283459 0.00359048 -0.0438416
0.0109604 -0.0578256 -0.0198421
0.0294797 -0.0185193 0.020976
0.041385 -0.0251334 0.0353379
-0.0260782 0.0224877 -0.0253223
-0.0300466 0.0232436 -0.0319364
-0.0113384 0.0627389 -0.00736993
-0.0126612 0.069164 0.0096376
0.00982658 -0.0591484 -0.00396842
0.00850377 -0.0315584 -0.0190862
-0.00944863 -0.0151178 0.0459203
0.00529123 0.0442196 0.0215429
-0.00396842 -0.00793685 -0.0181414
-0.00188973 0.00491329 0
-0.00793685 0.0117163 -0.0496998
-0.0438416 0.0309915 0.00151178
-0.0196532 -0.0440306 0.000377945
-0.0230547 -0.0296687 0.0175745
-0.0149288 0.0132281 0.020787
-0.00075589 0.0294797 0.0103935
0.0181414 0.00264562 -0.0149288
Vibration 10
-0.00529123 -0.00472431 -0.020976
-0.00491329 -0.0100155 -0.0304246
0.000944863 -0.0132281 -0.0156847
0.00680301 -0.0096376 0.00377945
0.00661404 -0.00585815 0.00302356
0.00113384 -0.0020787 -0.00359048
0.00869274 -0.00548021 0.00566918
0.000944863 0.00850377 0.0111494
0.00075589 0.0196532 0.0255113
-0.0109604 -0.00170075 -0.0213539
-0.00226767 -0.0147399 -0.00661404
-0.000566918 -0.0164406 0.00283459
-0.00944863 -0.00510226 -0.00283459
-0.0238105 0.0107714 -0.0217318
-0.0238105 0.0109604 -0.0304246
-0.00226767 -0.0107714 0.0122832
0.00075589 -0.0183303 -0.0143619
-0.00510226 -0.0561249 -0.0173855
-0.00529123 -0.0461093 -0.0109604
0.00113384 0.0041574 -0.00151178
0.00718096 0.034771 0
0.00680301 0.0211649 -0.00680301
0.00132281 0.0283459 0.0075589
0.00359048 -0.00869274 0.020787
0.00774788 -0.00907068 0.00566918
0.00491329 -0.00340151 0.00642507
0.000944863 0.0141729 0.0062361
0.00604712 -0.00736993 0.0105825
0.00831479 -0.0122832 0.0103935
-0.00888171 0.0532903 0.00113384
-0.0109604 0.0636838 0.00151178
-0.00245664 0.0268341 0.00850377
0.0062361 -0.00888171 0.0132281
0.00812582 -0.00831479 0.00888171
0.00812582 -0.0103935 0.00642507
0.00944863 -0.0102045 0.0120942
-0.00850377 -0.0120942 -0.0464873
0.0115273 0.0438416 -0.00566918
0.00472431 -0.0243775 -0.00264562
0.00831479 -0.0268341 0.0154958
-0.0340151 0.0221098 -0.0289128
-0.0330702 0.020787 -0.0421409
-0.00982658 -0.0920297 -0.0239995
-0.00982658 -0.0746442 -0.0130391
0.0117163 0.0701088 0.00661404
0.0317474 0.0168186 0.0370386
-0.0168186 0.0404401 0.00340151
0.00548021 0.0296687 0.0100155
0.0154958 0.0377945 0.0171965
0.0185193 -0.020976 0.041574
-0.00661404 -0.0230547 0.00585815
0.00453534 0.0181414 0.0224877
-0.0145509 0.0748331 -0.00359048
-0.0185193 0.0980768 -0.00359048
-0.00264562 0.027401 0.0103935
0.0126612 -0.0362827 0.0188973
0.0160627 -0.00680301 0.00604712
Vibration 11
0.00850377 -0.00831479 -0.0427078
0.00793685 -0.00113384 -0.0599043
0.00132281 0.00359048 -0.0296687
-0.00453534 0.000377945 0.00680301
-0.00359048 -0.0102045 0.0122832
0.00340151 -0.0115273 -0.0117163
-0.00642507 -0.0160627 0.0317474
0.00283459 -0.0173855 -0.0107714
0.00283459 -0.0230547 -0.013984
0.00907068 -0.00888171 -0.0374166
0.00434637 -0.0257003 -0.0232436
0.000188973 -0.0255113 -0.00302356
-0.000566918 -0.0075589 0.00188973
0.00377945 0.0096376 -0.0117163
0.00925966 0.00680301 -0.0309915
-0.0062361 -0.00850377 0.0249444
0.00113384 0.0102045 -0.020598
-0.0102045 0.0468652 -0.00944863
-0.0117163 0.0421409 0.00396842
-0.00226767 -0.00188973 0.00642507
0.00907068 -0.0309915 -0.00302356
0.0103935 -0.0217318 -0.0162516
-0.00453534 -0.0200311 0.020409
-0.0211649 0.0224877 0.020976
0.00472431 -0.0238105 0.0266451
0.00302356 0.0164406 0.0239995
0.00472431 0.00793685 0.0143619
-0.000944863 -0.00075589 0.0107714
-0.00869274 0.00245664 0.0128501
0.0128501 0.0117163 0.0096376
0.0145509 0.00529123 0.00188973
0.00888171 -0.00472431 -0.00151178
0.000944863 -0.00736993 0.00302356
-0.0128501 0.00831479 0.00661404
0.00132281 0.0602823 0.0317474
-0.0143619 0.00226767 0.0232436
0.013795 0.0020787 -0.089384
0.0192752 -0.0406291 -0.0228657
0.00359048 -0.0396842 -0.0287238
-0.00245664 -0.0385504 0.00831479
0.00359048 0.0243775 -0.00718096
0.013984 0.0181414 -0.0393063
-0.0177634 0.0778567 -0.0119053
-0.020409 0.0702978 0.0122832
0.0168186 -0.0612271 -0.000377945
-0.0236216 0.00585815 0.00359048
0.000566918 -0.027779 0.0268341
0.00585815 -0.0238105 0.0257003
-0.0219208 -0.0262672 0.0198421
-0.0283459 0.0175745 0.0389284
-0.0119053 0.0306136 -0.00359048
-0.0338261 0.0402512 0.0266451
0.0175745 0.020598 0.0124722
0.0202201 0.00850377 -0.00170075
0.0100155 -0.00982658 -0.00793685
-0.00359048 -0.0141729 0.000188973
-0.0226767 0.0041574 0.0302356
Vibration 12
-0.0158737 0.00944863 -0.00736993
-0.0160627 0.00170075 -0.0105825
-0.0103935 -0.00226767 -0.00793685
-0.00359048 0.00113384 -0.00170075
-0.00377945 0.00831479 -0.00170075
-0.0105825 0.0117163 -0.00642507
0.00359048 0.0113384 0.00188973
-0.00982658 0.0175745 -0.0117163
-0.00907068 0.0221098 -0.0188973
-0.0102045 0.00585815 -0.00170075
-0.0228657 0.0185193 -0.0177634
0 0.00529123 -0.00321253
0.0336371 -0.0181414 0.0251334
0.0476211 -0.0308025 0.0410071
0.0249444 -0.0171965 0.0272121
0.0585815 -0.0326923 0.041574
-0.0111494 -0.0100155 -0.00774788
-0.0145509 -0.00831479 -0.00604712
-0.0145509 -0.00226767 -0.00245664
-0.0124722 0.00170075 -0.000566918
-0.00982658 -0.00869274 -0.00321253
-0.00982658 -0.0141729 -0.00699199
-0.0122832 0.0198421 0.00529123
-0.0474321 0.0287238 -0.061983
0.00377945 0.00472431 0.000944863
0.00529123 -0.0020787 0.000944863
0.00359048 0.00510226 0.00170075
0.00699199 -0.0105825 0.00472431
0.00604712 -0.00585815 0.00396842
-0.00113384 0.0247554 -0.000944863
-0.000377945 0.020787 0.000566918
0.00566918 -0.00831479 0.00585815
0.00925966 -0.0232436 0.00774788
0.00491329 -0.0103935 0.00359048
0.00888171 -0.0149288 0
0.0143619 0.00113384 0.00793685
-0.020976 -0.00132281 -0.0147399
-0.00831479 -0.0198421 -0.00850377
-0.0510226 0.0389284 -0.0410071
-0.0096376 0.013984 -0.0141729
0.0782347 -0.0532903 0.0663294
0.0357158 -0.0257003 0.0381725
-0.0166296 -0.00982658 -0.00774788
-0.0162516 0.000944863 -0.00113384
-0.00774788 -0.0105825 -0.00188973
0.0173855 -0.00188973 0.0132281
-0.0251334 0.0228657 0.00888171
-0.00944863 0.0291018 0.00774788
-0.00188973 0.0226767 0.00434637
-0.0629279 0.0421409 -0.0850377
-0.00188973 0.0733214 -0.144942
-0.150989 0.013606 -0.0283459
-0.00510226 0.0419519 -0.00434637
-0.0041574 0.0381725 -0.0020787
0.00736993 -0.0179524 0.00831479
0.0134171 -0.0436527 0.0113384
0.0151178 0.00869274 0.0062361
Vibration 13
-0.00377945 -0.00264562 -0.00925966
-0.00377945 -0.00604712 -0.00850377
0.00132281 -0.00850377 0.00188973
0.00510226 -0.0062361 0.0105825
0.00491329 -0.00491329 0.00359048
0.000377945 -0.000566918 -0.00188973
0.0117163 -0.00170075 0.00585815
0.000944863 0.00793685 -0.00075589
0.00151178 0.0183303 0.000377945
-0.00661404 -0.00132281 -0.0120942
-0.0134171 -0.000377945 -0.0151178
-0.00812582 -0.00396842 -0.00680301
0.00321253 -0.00831479 0.00377945
0.00566918 -0.00642507 0.00302356
0.000566918 -0.00340151 -0.00491329
0.0147399 -0.0160627 0.0187083
0.00132281 -0.0170075 0.000188973
0.00264562 -0.0404401 -0.00434637
0.00340151 -0.0359048 -0.00661404
0.00283459 -0.00434637 -0.00377945
0.000944863 0.00944863 -0.00113384
0.000566918 0.000566918 0.00075589
0.00396842 0.0194642 -0.00434637
-0.0141729 0.00472431 -0.00736993
0.00302356 -0.00226767 0.00888171
-0.00529123 0.0122832 0.0113384
0.00188973 -0.0202201 0.0100155
-0.00869274 0.0249444 0.000944863
0.00245664 -0.00113384 0.000944863
0.0141729 -0.0704868 0.0170075
0.0075589 -0.034582 0.0102045
-0.0128501 0.0653845 -0.00736993
-0.0198421 0.0890061 -0.00982658
0.0179524 -0.0158737 0.0217318
-0.0222988 0.0651955 0.013984
0.00661404 -0.0113384 -0.0357158
-0.00680301 -0.00793685 -0.0156847
-0.000566918 0.00925966 0.00283459
-0.0221098 0.00245664 -0.0232436
-0.0120942 -0.00377945 -0.00812582
0.0126612 -0.00850377 0.00982658
0.00340151 -0.00264562 -0.00453534
0.00396842 -0.0604712 -0.00566918
0.00434637 -0.0531013 -0.0096376
0.000188973 0.0289128 0.000188973
-0.0190862 -0.0701088 -0.0387394
-0.0105825 0.0228657 0
0.00226767 0.034393 -0.00377945
0.020976 0.0228657 -0.0096376
-0.0111494 0.00188973 -0.00188973
-0.00566918 0.0107714 -0.041385
-0.0451645 0.0158737 0.00377945
0.0268341 -0.129635 0.0279679
0.0162516 -0.0765339 0.0164406
-0.0222988 0.118675 -0.0185193
-0.0317474 0.157036 -0.020787
-0.00736993 -0.0336371 -0.0192752
Vibration 14
0.0062361 -0.00264562 -0.0128501
0.00661404 -0.00529123 0.0219208
0.00718096 -0.00510226 0.0383614
0.00359048 -0.00699199 0.0143619
0.0020787 -0.00453534 0.00245664
0.00434637 -0.00434637 -0.00642507
-0.00472431 -0.0062361 -0.00661404
0.00359048 -0.00585815 0.00491329
0.00226767 -0.00718096 0.0257003
-0.00548021 0.00472431 -0.0355268
-0.0245664 0.00736993 -0.0430858
-0.0247554 0.00529123 -0.0291018
-0.00359048 0.00264562 -0.00812582
-0.00925966 0.0164406 -0.0222988
-0.00699199 0.0145509 -0.0330702
0.0313695 -0.0224877 0.0453534
0.00774788 0.00585815 0.0461093
0.0287238 0.00907068 0.0362827
0.0321253 0.00888171 0.0134171
0.0143619 0.00585815 0.00075589
-0.0062361 0.0177634 0.0119053
-0.00736993 0.0156847 0.0351489
0.0168186 -0.0166296 -0.0332592
-0.0126612 0.0226767 0.0119053
-0.0062361 -0.00113384 -0.00529123
-0.00321253 -0.00151178 -0.00642507
-0.0041574 0.00434637 -0.00699199
-0.00321253 0.00302356 -0.0062361
-0.00604712 -0.0020787 -0.00321253
-0.00283459 0.00245664 -0.00718096
-0.00075589 -0.0075589 -0.00718096
0.000188973 -0.013606 -0.00642507
-0.00170075 -0.00680301 -0.00699199
-0.0149288 0.000188973 -0.0147399
0.00075589 -0.0111494 -0.00661404
-0.0166296 -0.00831479 -0.0020787
0.0041574 -0.0062361 0.0328812
-0.0230547 0.0192752 0.0425188
-0.0368497 0.00774788 -0.0557469
-0.0349599 0.00340151 -0.0304246
-0.0100155 0.0253223 -0.0200311
-0.00245664 0.0194642 -0.0359048
0.0440306 0.00869274 0.0468652
0.0476211 0.00774788 0.00604712
-0.020976 0.0243775 0.0020787
0.0164406 0.0368497 0.0262672
0.0457314 -0.0202201 -0.0461093
-0.00434637 -0.0300466 -0.0464873
0.0117163 -0.0200311 -0.0368497
0.0389284 -0.0185193 0.0803134
-0.0238105 -0.00566918 -0.103746
-0.0789905 0.120376 0.0419519
-0.00264562 0.00661404 -0.00736993
0.000566918 -0.0115273 -0.00680301
0.00188973 -0.0238105 -0.00491329
-0.00226767 -0.0119053 -0.00699199
-0.00151178 -0.0120942 -0.0147399
Vibration 15
0.00377945 -0.0177634 -0.00718096
0.00718096 -0.0119053 -0.00170075
0.00925966 -0.0126612 0.00321253
0.00529123 -0.013984 0.000377945
0.00925966 -0.0187083 -0.00132281
0.00642507 -0.0179524 -0.00585815
-0.00245664 -0.0243775 0.00321253
0.0113384 0.0608492 -0.000944863
0.0187083 0.202579 0.00831479
0.0102045 -0.0226767 -0.00340151
0.00680301 -0.0287238 0.000377945
0.00226767 -0.0270231 0.00264562
0.00151178 -0.0234326 0.00321253
0.020787 -0.02759 0.0134171
0.0192752 -0.0257003 0.00548021
-0.027401 -0.0075589 -0.0151178
0.0103935 0.00642507 0.00793685
0.0156847 0.0239995 0.00831479
0.0164406 0.027401 0.00604712
0.0141729 0.0100155 0.00264562
0.0109604 0.0192752 0.00548021
0.0103935 0.0173855 0.00850377
0.0134171 -0.0308025 -0.00661404
-0.0113384 -0.0122832 0.00283459
-0.00661404 -0.0238105 0.00434637
-0.0107714 -0.00774788 0.0041574
-0.0113384 -0.00491329 -0.00283459