[Molden Format]
[FREQ]
-581.4
2.8
15.6
17.7
25.5
26.7
29.5
32.8
34.7
36.7
41.1
48.0
55.2
70.1
75.4
90.0
107.8
130.3
133.7
145.1
146.1
155.2
162.6
178.6
181.2
208.9
216.0
233.5
249.4
256.6
295.1
310.1
313.4
325.2
334.3
352.4
356.4
366.4
382.7
395.4
419.9
424.1
482.2
492.0
502.4
509.2
522.1
543.3
544.5
554.4
562.4
571.7
580.4
604.0
611.1
615.6
625.6
637.8
652.0
666.1
706.7
714.0
717.8
744.6
756.9
801.3
806.8
818.2
848.8
865.9
874.7
882.4
883.0
898.5
900.8
932.5
958.7
976.2
995.2
1008.9
1009.9
1015.8
1018.0
1019.7
1033.3
1039.2
1050.3
1070.8
1075.7
1080.9
1091.6
1111.9
1126.5
1148.8
1151.1
1178.8
1181.3
1183.0
1212.7
1227.0
1248.2
1259.5
1265.4
1270.1
1272.4
1278.5
1283.1
1286.9
1296.2
1302.4
1317.9
1326.8
1338.8
1340.3
1348.4
1352.1
1354.1
1365.4
1381.5
1386.4
1393.7
1427.6
1454.3
1495.5
1510.4
1520.0
1522.7
1528.4
1543.3
1551.0
1565.9
1598.6
1605.8
1616.6
1651.9
1682.3
1698.9
1699.9
1707.8
1709.3
1781.9
1811.4
2039.4
2448.0
2533.1
2651.6
2654.4
2666.3
2672.7
2738.4
2738.7
2744.5
2745.1
2746.6
2746.8
2747.5
2758.3
2761.8
2764.9
2765.8
2766.6
2767.2
2770.0
2772.1
2779.2
       
[FR-COORD]
C -1.51424 -3.93157 0.106581
C 1.12193 -3.93157 0.106581
C 2.39825 -1.61307 0.106581
N 1.20054 0.633058 0.0988327
C -1.38498 0.670853 0.0166296
C -2.81909 -1.62573 0.0589595
N -2.59497 2.96252 -0.133982
C -5.48115 -1.54787 -0.0119053
N -7.6687 -1.45868 -0.0693529
C -2.87427 -6.34419 0.147021
C -2.40619 -8.1364 -1.74743
C -3.67571 -10.4245 -1.74214
C -5.42087 -10.9151 0.200878
C -5.89538 -9.16101 2.11177
C -4.61131 -6.86556 2.06245
O -6.51955 -13.2218 -0.013984
C 5.18031 -1.48892 0.14343
C 6.53694 -2.92548 1.89426
C 9.16139 -2.80246 1.93395
C 10.447 -1.25194 0.22261
C 9.08278 0.176689 -1.52992
C 6.45644 0.0640617 -1.56847
C 13.2604 -1.1499 0.255113
C -8.40796 -13.86 1.78692
C -1.26631 5.19051 -0.230925
C 1.99083 6.35628 0.37889
C 1.16445 8.43082 -1.32961
C -1.34133 7.44061 -1.79089
C -1.34813 9.28177 4.80236
C 2.0324 10.5908 -2.42584
C 0.361883 11.8248 -4.10864
C -2.0135 10.8485 -4.62586
C -2.91566 8.61299 -3.48239
O -3.46406 9.38154 4.40344
O 4.07973 5.07902 0.219397
O 0.169319 5.81072 2.12481
H 2.16903 -5.69563 0.116785
H 3.79967 3.23559 0.856613
H -1.04804 -7.71311 -3.24145
H -3.35729 -11.8337 -3.20233
H -7.24237 -9.54274 3.60843
H -4.96979 -5.46603 3.53643
H 5.53784 -4.13113 3.23483
H 10.2183 -3.9174 3.30022
H 10.0726 1.38328 -2.86879
H 5.39101 1.18278 -2.94022
H 14.0329 -1.30542 2.17696
H 14.0055 0.612271 -0.5518
H 14.0684 -2.71535 -0.854156
H -9.00095 -15.7444 1.14763
H -9.99438 -12.5346 1.69735
H -7.60709 -13.9617 3.69045
H 3.91003 11.3438 -2.07057
H 0.979445 13.5588 -5.01873
H -3.24542 11.8299 -5.95812
H -4.77666 7.87902 -3.93233
H -4.47638 3.06343 0.258137

[FR-NORM-COORD]
Vibration 1
0.000566918 -0.00377945 -0.000188973
-0.00321253 -0.00585815 0.00132281
0.00529123 -0.00661404 0.000188973
-0.00888171 -0.0190862 -0.00434637
0.00377945 -0.0238105 0.0158737
-0.00472431 0.00170075 0.000566918
0.0823921 0.0279679 -0.0410071
-0.00321253 0.00321253 0.00075589
-0.00245664 0.00151178 -0.000566918
-0.000944863 -0.000566918 -0.000566918
0 -0.00075589 -0.000188973
0 -0.000377945 -0.000188973
-0.000188973 -0.000377945 0
-0.000188973 0 0
-0.000377945 -0.000188973 0
0 0.000188973 0
0.00170075 -0.00340151 -0.0020787
0.000944863 -0.00132281 0.000188973
0.000566918 -0.000377945 0.000188973
0.000188973 -0.000566918 -0.000188973
0.000566918 -0.000944863 -0.00075589
0.00075589 -0.00132281 -0.00113384
0.000377945 -0.000188973 0
0 0 0.000188973
0.347332 -0.0442196 0.0308025
-0.202201 -0.213728 -0.15817
-0.0213539 0.0187083 -0.0336371
-0.0389284 0.0859825 -0.0260782
0.00434637 0.00699199 0.0117163
0.00944863 -0.00699199 0.0156847
-0.0257003 0.00510226 -0.00944863
0.00548021 0.0355268 -0.0147399
-0.0355268 0.00888171 0.0232436
0.00113384 -0.00510226 -0.00774788
0.00264562 -0.0141729 0.00793685
-0.111494 0.107525 0.157225
-0.00359048 -0.0075589 0.00453534
0.112628 0.0402512 -0.0279679
0.00151178 -0.00170075 0.00075589
0.000377945 -0.000944863 0.000377945
0.000188973 -0.000377945 0.000566918
0.00075589 -0.00075589 0.000944863
0.00170075 0.00245664 0.00321253
0.000566918 0.00245664 0.0020787
-0.000566918 0.00472431 0.00377945
-0.000377945 0.0119053 0.00944863
-0.000566918 0.000944863 0.000377945
-0.00075589 0.000944863 0.00075589
0.000944863 0.000566918 0.000377945
0.000188973 -0.000188973 0.000188973
-0.000188973 -0.000377945 0.000377945
0.000188973 -0.000188973 0.000188973
0.0120942 -0.0111494 -0.0105825
0.0130391 -0.000377945 -0.00793685
-0.00075589 0.00396842 -0.0257003
-0.0404401 0.034204 -0.00850377
0.0924076 0.154958 -0.0657625
Vibration 2
-0.00491329 -0.0151178 -0.00510226
-0.00510226 -0.0103935 -0.00359048
-0.00925966 -0.00793685 0.00321253
-0.0134171 -0.0103935 0.00774788
-0.0134171 -0.0145509 0.00434637
-0.00925966 -0.0175745 -0.00132281
-0.0166296 -0.0166296 0.00812582
-0.00925966 -0.0224877 -0.00226767
-0.00944863 -0.0264562 -0.00264562
-0.000188973 -0.0179524 -0.0105825
0.00377945 -0.0130391 -0.0143619
0.00925966 -0.0160627 -0.0187083
0.0109604 -0.0243775 -0.0192752
0.00680301 -0.0291018 -0.0158737
0.00113384 -0.0258892 -0.0115273
0.0170075 -0.0268341 -0.0234326
-0.00944863 -0.00302356 0.00548021
-0.00774788 -0.00869274 -0.000566918
-0.00793685 -0.00434637 0.00113384
-0.00982658 0.00566918 0.00869274
-0.0117163 0.0113384 0.0147399
-0.0113384 0.00699199 0.0130391
-0.0100155 0.0102045 0.0102045
0.0188973 -0.0351489 -0.0243775
-0.0222988 -0.0126612 0.013606
-0.0236216 -0.0120942 0.0168186
-0.020598 -0.0143619 0.0124722
-0.0196532 -0.0151178 0.00925966
0.128501 0.0908958 -0.00434637
-0.0187083 -0.0158737 0.0111494
-0.0164406 -0.0173855 0.00774788
-0.0156847 -0.0175745 0.00548021
-0.0171965 -0.0170075 0.00585815
0.143997 0.307647 -0.0309915
-0.0217318 -0.0096376 0.0228657
-0.027779 -0.0103935 0.013795
-0.00188973 -0.00850377 -0.00736993
-0.0194642 -0.00850377 0.0255113
0.00245664 -0.00661404 -0.013795
0.0124722 -0.0124722 -0.0217318
0.00793685 -0.0355268 -0.0164406
-0.0020787 -0.0296687 -0.00888171
-0.00604712 -0.0166296 -0.00642507
-0.00642507 -0.00869274 -0.00359048
-0.0132281 0.0190862 0.020598
-0.0128501 0.0113384 0.0177634
-0.0107714 0.00566918 0.0100155
-0.0124722 0.013795 0.0158737
-0.00699199 0.0147399 0.00585815
0.0238105 -0.0355268 -0.0279679
0.0153068 -0.0391173 -0.0217318
0.0192752 -0.0366607 -0.0247554
-0.0190862 -0.0156847 0.0128501
-0.0151178 -0.0179524 0.00736993
-0.0141729 -0.0183303 0.00340151
-0.0166296 -0.0171965 0.00377945
-0.0192752 -0.0217318 -0.00453534
Vibration 3
0.000377945 -0.00151178 -0.00680301
0.000377945 -0.00132281 0.00302356
0 -0.00113384 -0.00472431
0.000566918 -0.00113384 -0.0187083
0.000377945 -0.00132281 -0.0215429
0.00075589 -0.00170075 -0.020787
-0.000377945 -0.00226767 -0.0217318
0.00113384 -0.0020787 -0.034582
0.00132281 -0.0020787 -0.0470542
0.000188973 -0.00132281 -0.00151178
0.0115273 -0.0122832 0.0115273
0.0113384 -0.0122832 0.0170075
-0.000377945 -0.000944863 0.00925966
-0.0117163 0.00982658 -0.00359048
-0.0111494 0.00944863 -0.00888171
0.000566918 -0.0020787 0.0156847
0 -0.00113384 0.00434637
-0.00831479 0.0241885 0.0313695
-0.00831479 0.0255113 0.0421409
-0.00075589 0.00132281 0.0262672
0.00718096 -0.0243775 -0.00113384
0.00736993 -0.0255113 -0.0120942
-0.000944863 0.00359048 0.0372276
-0.0103935 0.00850377 0.00793685
-0.0020787 -0.00075589 -0.0183303
0.00132281 -0.00075589 -0.0328812
-0.0122832 0.00736993 -0.0164406
-0.0143619 0.0075589 -0.00548021
0.0695419 -0.0423299 0.0385504
-0.0222988 0.0151178 -0.00907068
-0.0349599 0.0234326 0.0096376
-0.0372276 0.0238105 0.0196532
-0.0270231 0.0158737 0.0120942
0.0644397 -0.0236216 0.0706758
0.00075589 0.00132281 -0.0521564
0.0124722 -0.0122832 -0.0245664
0.000944863 -0.00113384 0.0164406
0.00642507 -0.000377945 -0.0529123
0.020598 -0.020976 0.0171965
0.0202201 -0.020598 0.0270231
-0.020787 0.0185193 -0.0096376
-0.0198421 0.0177634 -0.0188973
-0.0145509 0.0430858 0.0436527
-0.0149288 0.0455424 0.0634948
0.0134171 -0.0438416 -0.013984
0.013606 -0.0457314 -0.0330702
-0.00661404 -0.00642507 0.0385504
-0.000377945 0.00907068 0.0493218
0.0041574 0.0105825 0.0309915
-0.0062361 0.00453534 0.0156847
-0.0100155 0.00774788 -0.00982658
-0.0222988 0.0200311 0.013606
-0.020787 0.0153068 -0.0171965
-0.0430858 0.0298577 0.0162516
-0.0474321 0.0308025 0.0340151
-0.0292908 0.0166296 0.0202201
-0.00151178 -0.00377945 -0.027401
Vibration 4
0.00340151 0.00321253 0.0202201
0.00321253 0.00283459 0.0134171
0.00340151 0.00283459 0.0166296
0.00396842 0.00302356 0.0213539
0.00359048 0.00321253 0.0308025
0.00340151 0.00359048 0.034771
0.00302356 0.00321253 0.0349599
0.00302356 0.00434637 0.0517785
0.00264562 0.00491329 0.0676522
0.00226767 0.00340151 0.0062361
-0.00812582 0.0221098 -0.013984
-0.0126612 0.0245664 -0.0328812
-0.00642507 0.00812582 -0.0315584
0.00548021 -0.0115273 -0.0105825
0.00982658 -0.0134171 0.00831479
-0.0134171 0.0134171 -0.0527234
0.00359048 0.00188973 0.0143619
0.00302356 0.00850377 0.0202201
0.00302356 0.00831479 0.0202201
0.00340151 0.00151178 0.0143619
0.00396842 -0.00566918 0.00812582
0.00377945 -0.00548021 0.00812582
0.00340151 0.00170075 0.0145509
-0.0103935 -0.000188973 -0.0544241
0.00264562 0.00226767 0.0113384
0.00718096 0.00566918 -0.0221098
-0.00510226 -0.00642507 -0.0311805
-0.00888171 -0.00888171 -0.00434637
0.0255113 0.0162516 -0.0041574
-0.0126612 -0.0153068 -0.0546131
-0.0253223 -0.027779 -0.0515895
-0.0294797 -0.0308025 -0.0257003
-0.0215429 -0.0215429 -0.00132281
0.0181414 -0.0234326 0.0247554
0.00510226 0.00302356 -0.0285349
0.020598 0.0187083 -0.0041574
0.00321253 0.00283459 0.00529123
0.00850377 0.00793685 -0.0120942
-0.0128501 0.0349599 -0.0145509
-0.0211649 0.0391173 -0.0489439
0.0111494 -0.0247554 -0.00888171
0.0187083 -0.0281569 0.0243775
0.00245664 0.013984 0.0247554
0.00264562 0.013795 0.0251334
0.00434637 -0.0113384 0.00340151
0.00434637 -0.0109604 0.00340151
0.00359048 0.00245664 0.0145509
0.00321253 0.00151178 0.013984
0.00359048 0.00151178 0.0149288
-0.0198421 0.0096376 -0.0744552
-0.00548021 0.00699199 -0.0336371
-0.00453534 -0.0257003 -0.0582036
-0.00982658 -0.0132281 -0.0750221
-0.0313695 -0.0351489 -0.0699199
-0.0393063 -0.0408181 -0.0241885
-0.0253223 -0.0245664 0.0187083
0.0062361 0.00510226 0.0495108
Vibration 5
-0.0113384 0.00510226 -0.0109604
-0.0113384 0.00548021 -0.0126612
-0.0115273 0.00566918 -0.00566918
-0.0130391 0.00491329 0.000566918
-0.0124722 0.00453534 -0.00472431
-0.0122832 0.00472431 -0.0075589
-0.0109604 0.00566918 -0.00982658
-0.0122832 0.00377945 -0.00661404
-0.0122832 0.00264562 -0.00566918
-0.00925966 0.00377945 -0.0096376
-0.0149288 0.00661404 -0.013606
-0.00774788 0.00264562 -0.00736993
0.00548021 -0.00396842 0.00283459
0.00907068 -0.00548021 0.00491329
0.00132281 -0.00113384 -0.00151178
0.0141729 -0.00888171 0.00982658
-0.0117163 0.00793685 -0.00377945
-0.00944863 -0.0130391 -0.0228657
-0.00982658 -0.00888171 -0.020409
-0.0119053 0.0168186 0.00113384
-0.013984 0.0376055 0.0196532
-0.013606 0.0326923 0.0168186
-0.0122832 0.0224877 0.00491329
0.0328812 -0.0196532 0.0255113
-0.00736993 0.00340151 -0.00925966
-0.0122832 0.000944863 0.0120942
0.00680301 -0.00699199 -0.00680301
0.00888171 -0.00453534 -0.0221098
0.0366607 -0.0103935 0.0487549
0.0221098 -0.0171965 -0.0143619
0.0402512 -0.0255113 -0.0387394
0.0425188 -0.0230547 -0.0525344
0.0264562 -0.0124722 -0.0436527
0.0257003 -0.0239995 0.103368
-0.0102045 0.000188973 0.0379835
-0.0266451 0.0132281 0.000377945
-0.0113384 0.00548021 -0.0183303
-0.0149288 0.00377945 0.0425188
-0.0243775 0.0115273 -0.020787
-0.0115273 0.00434637 -0.00982658
0.0177634 -0.00982658 0.0117163
0.0041574 -0.00226767 0.000188973
-0.00736993 -0.0328812 -0.0391173
-0.00812582 -0.0253223 -0.0351489
-0.0158737 0.0576366 0.0362827
-0.0151178 0.0487549 0.0309915
-0.0147399 0.0151178 0.00548021
-0.0143619 0.027401 0.013984
-0.00774788 0.0289128 -0.000944863
0.0391173 -0.0236216 0.0311805
0.0239995 -0.0292908 0.0377945
0.0487549 -0.013795 0.0190862
0.020787 -0.0192752 -0.00302356
0.0531013 -0.0340151 -0.0464873
0.0568808 -0.0302356 -0.0710537
0.0287238 -0.0111494 -0.055369
-0.0102045 0.00793685 -0.00718096
Vibration 6
-0.00604712 0.00396842 -0.0162516
-0.00642507 0.000566918 -0.0221098
-0.0041574 -0.000566918 -0.0154958
-0.00151178 0.000566918 -0.0132281
-0.00188973 0.00359048 -0.0105825
-0.0041574 0.00510226 -0.00699199
0.000188973 0.00453534 -0.00944863
-0.00453534 0.00566918 0.0100155
-0.00491329 0.00529123 0.0257003
-0.00774788 0.00472431 -0.0151178
-0.0444086 0.0232436 -0.041385
-0.0406291 0.020976 -0.0351489
0.00226767 0.000188973 -0.00188973
0.0366607 -0.0162516 0.0219208
0.0308025 -0.0130391 0.0147399
0.00491329 -0.00151178 0.00283459
-0.0041574 -0.00491329 -0.00491329
-0.0156847 -0.00491329 0.00396842
-0.0158737 -0.00869274 0.0187083
-0.00434637 -0.0122832 0.0241885
0.00718096 -0.0128501 0.0143619
0.00736993 -0.00907068 -0.000188973
-0.00434637 -0.0149288 0.0385504
0.0561249 -0.0283459 0.0470542
0.00226767 0.00359048 -0.00680301
0.00472431 -0.000377945 -0.0102045
0.00245664 0.00510226 -0.00226767
0.00075589 0.00831479 0
-0.00491329 -0.013606 -0.00170075
0.00132281 0.00850377 0.00321253
-0.00188973 0.0156847 0.0117163
-0.00359048 0.0188973 0.013606
-0.00226767 0.0153068 0.0075589
0.000377945 0.00170075 -0.0262672
0.00302356 -0.00188973 -0.0177634
0.00774788 -0.00396842 -0.00812582
-0.00850377 -0.00075589 -0.0300466
0.00245664 -0.00283459 -0.0200311
-0.075778 0.0387394 -0.0653845
-0.069164 0.034582 -0.0546131
0.0678412 -0.0315584 0.0459203
0.0570697 -0.0251334 0.0323143
-0.0249444 -0.0020787 -0.000188973
-0.0251334 -0.00850377 0.0258892
0.0166296 -0.0162516 0.0183303
0.0164406 -0.0096376 -0.0075589
-0.0103935 -0.068975 0.0364717
-0.00151178 0.00774788 0.0903289
-0.00132281 0.0158737 -0.00264562
0.0510226 -0.0266451 0.0464873
0.0457314 -0.0374166 0.0997775
0.106581 -0.0396842 0.0253223
0.00245664 0.00604712 0.00170075
-0.00302356 0.0185193 0.0166296
-0.0062361 0.0245664 0.0202201
-0.00396842 0.0183303 0.00944863
0.000377945 0.00604712 -0.00925966
Vibration 7
0.0122832 -0.013606 -0.0041574
0.0120942 -0.0115273 -0.00907068
0.00888171 -0.00944863 -0.0113384
0.00566918 -0.0113384 -0.0109604
0.00566918 -0.013795 -0.00944863
0.00907068 -0.0153068 -0.00472431
0.00377945 -0.0151178 -0.0115273
0.00869274 -0.0198421 0.000944863
0.00850377 -0.0241885 0.00585815
0.00831479 -0.0115273 0.00245664
-0.0234326 -0.00434637 -0.0117163
-0.041385 0.00548021 -0.0117163
-0.0262672 0.00831479 0.00264562
0.0105825 -0.00113384 0.020409
0.02759 -0.0107714 0.0202201
-0.0519675 0.020976 -0.00283459
0.00869274 0.00132281 -0.0109604
0.0153068 0.0117163 -0.0075589
0.013984 0.034582 0.000944863
0.00642507 0.0464873 0.00566918
0.000188973 0.0321253 -0.000944863
0.00113384 0.00925966 -0.00925966
0.00529123 0.0746442 0.0213539
-0.0474321 0.0315584 0.00585815
0.00245664 -0.013984 -0.00604712
0.000377945 -0.0130391 0.00226767
0.00226767 -0.0105825 0.00434637
0.00377945 -0.0111494 -0.0020787
-0.00321253 -0.0402512 0.0249444
0.00340151 -0.00831479 0.0096376
0.00604712 -0.0062361 0.00869274
0.00736993 -0.00642507 0.00264562
0.00642507 -0.00907068 -0.00302356
0.00680301 0.00869274 -0.0158737
0.00283459 -0.00925966 0.00510226
-0.00245664 -0.0173855 -0.0020787
0.013984 -0.0103935 -0.0105825
0.00510226 -0.0102045 0.00226767
-0.0355268 -0.00604712 -0.0230547
-0.0678412 0.0115273 -0.0234326
0.0251334 -0.000566918 0.0338261
0.054991 -0.0170075 0.0325033
0.0211649 0.00321253 -0.0109604
0.0196532 0.0438416 0.0041574
-0.0062361 0.0396842 0.00113384
-0.00396842 -0.00075589 -0.013606
-0.0096376 0.163083 0.034771
-0.00377945 0.0470542 -0.0470542
0.0289128 0.0351489 0.0942973
-0.0776677 0.0449755 -0.00529123
-0.0302356 0.0536682 0.0289128
-0.034204 0.00510226 -0.000944863
0.00245664 -0.00812582 0.0145509
0.00680301 -0.00434637 0.0128501
0.00925966 -0.00472431 0.00226767
0.0075589 -0.00907068 -0.00774788
0.00302356 -0.0170075 -0.0147399
Vibration 8
-0.00925966 0.0117163 0.0149288
-0.00907068 0.0100155 0.0145509
-0.00718096 0.00869274 0.0102045
-0.00472431 0.00944863 0.00585815
-0.00510226 0.0117163 0.00736993
-0.0075589 0.0128501 0.0160627
-0.000944863 0.0124722 0.00170075
-0.00736993 0.0168186 0.0272121
-0.0075589 0.0215429 0.0391173
-0.0062361 0.00982658 0.00888171
0.020598 0.00604712 0.0185193
0.0317474 0.000188973 0.0122832
0.0143619 -0.00226767 -0.00396842
-0.0149288 0.00226767 -0.0153068
-0.0247554 0.00793685 -0.00869274
0.0300466 -0.00925966 -0.00699199
-0.00699199 0.00510226 0.00548021
-0.00604712 0.0124722 0.0105825
-0.00548021 0.0062361 0.00283459
-0.00642507 -0.00774788 -0.0103935
-0.0075589 -0.013984 -0.0145509
-0.00793685 -0.00736993 -0.00680301
-0.00604712 -0.0156847 -0.0219208
0.0154958 -0.0145509 -0.0241885
0.00188973 0.0109604 -0.00453534
0.0075589 0.00302356 -0.0154958
0.0102045 -0.000566918 -0.0202201
0.00566918 0.00718096 -0.0107714
-0.0716206 -0.214673 0.223177
0.0168186 -0.00888171 -0.0319364
0.0181414 -0.00925966 -0.0328812
0.0122832 -0.00113384 -0.0221098
0.0062361 0.00699199 -0.0115273
-0.000944863 0.0754001 -0.0801244
0.00604712 0.000188973 -0.0132281
0.0096376 0.0102045 -0.0107714
-0.0100155 0.00944863 0.0166296
0.00604712 0.00396842 -0.00340151
0.0338261 0.00793685 0.0308025
0.0536682 -0.00283459 0.0200311
-0.0296687 0.00113384 -0.0287238
-0.0466762 0.0103935 -0.0162516
-0.00548021 0.0226767 0.0202201
-0.00491329 0.0115273 0.00661404
-0.00793685 -0.0243775 -0.0243775
-0.00907068 -0.0122832 -0.0100155
0.00453534 -0.0555579 -0.0294797
-0.00642507 -0.00132281 0.00869274
-0.0158737 0.0041574 -0.0572587
0.0349599 -0.0211649 -0.0222988
0.0075589 -0.0255113 -0.0462983
-0.00377945 -0.00113384 -0.0153068
0.0211649 -0.0158737 -0.0404401
0.0230547 -0.0154958 -0.0419519
0.0122832 -0.00075589 -0.0221098
0.00170075 0.0134171 -0.00302356
-0.00396842 0.0160627 -0.0158737
Vibration 9
-0.0145509 0.00245664 0.00340151
-0.013984 -0.000377945 0.00321253
-0.0122832 -0.00188973 0.00075589
-0.0100155 -0.000944863 0.00075589
-0.00982658 0.00245664 0.00377945
-0.0122832 0.00396842 0.00585815
-0.00396842 0.00548021 0.00302356
-0.0122832 0.00774788 0.0113384
-0.0122832 0.0115273 0.0170075
-0.0130391 0.00151178 -0.000944863
-0.00113384 0.0020787 0.00113384
0.00888171 -0.00321253 -0.000566918
0.00642507 -0.0096376 -0.00434637
-0.00869274 -0.00869274 -0.00888171
-0.0183303 -0.00302356 -0.00718096
0.020598 -0.0164406 -0.00340151
-0.0122832 0.000566918 -0.00302356
-0.00869274 0.0317474 0.0196532
-0.00925966 0.041574 0.0185193
-0.013795 0.0188973 -0.0062361
-0.0175745 -0.0147399 -0.0300466
-0.0173855 -0.0232436 -0.0281569
-0.0141729 0.0289128 -0.000944863
0.0253223 -0.0281569 -0.00264562
0.00453534 0.000944863 0.00340151
0.00907068 -0.0126612 0.000566918
0.0154958 -0.00812582 0.00283459
0.0107714 0.00283459 0.00529123
0.0109604 0.0117163 -0.0215429
0.0239995 -0.0113384 0.00321253
0.027401 -0.00283459 0.0062361
0.0222988 0.00831479 0.00907068
0.013795 0.0113384 0.00869274
0.0075589 -0.013984 -0.0105825
0.00642507 -0.0164406 -0.000944863
0.00888171 -0.00585815 0.00264562
-0.0154958 -0.00113384 0.00453534
0.00453534 -0.0154958 -0.00151178
0.00132281 0.00661404 0.00453534
0.0192752 -0.00321253 0.00170075
-0.0124722 -0.0124722 -0.0134171
-0.0294797 -0.00302356 -0.0100155
-0.00566918 0.0495108 0.0377945
-0.00529123 0.0676522 0.0366607
-0.0217318 -0.0332592 -0.0498888
-0.0211649 -0.0474321 -0.0447865
-0.0281569 0.199366 0.0187083
-0.0115273 -0.0408181 -0.150233
-0.00321253 -0.0665184 0.142107
0.0404401 -0.0340151 0.00075589
0.0147399 -0.0408181 -0.00566918
0.0253223 -0.0179524 -0.00226767
0.0279679 -0.0202201 0.00132281
0.0340151 -0.00510226 0.0062361
0.0247554 0.0147399 0.0115273
0.00982658 0.0202201 0.0103935
-0.00302356 0.0115273 0.00585815
Vibration 10
-0.00604712 -0.00283459 0.00264562
-0.00566918 -0.00396842 0.000377945
-0.00529123 -0.00453534 -0.0020787
-0.00491329 -0.00434637 -0.00151178
-0.00472431 -0.00302356 0.00170075
-0.00548021 -0.00245664 0.00434637
-0.00132281 -0.00113384 0.00113384
-0.00548021 -0.000377945 0.00944863
-0.00548021 0.00188973 0.0145509
-0.00585815 -0.00302356 0.00188973
0.00226767 -0.00585815 0.00642507
0.00396842 -0.00680301 0.00510226
-0.00302356 -0.00491329 -0.00075589
-0.0119053 -0.0020787 -0.00566918
-0.0130391 -0.00132281 -0.0041574
0 -0.00642507 -0.00132281
-0.00548021 0.000188973 -0.00453534
-0.00132281 0.0213539 0.00869274
-0.00132281 0.0349599 0.0115273
-0.00718096 0.0266451 0.000944863
-0.0120942 0.00340151 -0.0154958
-0.0107714 -0.0096376 -0.0181414
-0.00793685 0.048188 -0.00566918
-0.00642507 -0.00529123 -0.00736993
0.0041574 -0.00396842 0.00188973
0.00642507 -0.0124722 0.00188973
0.0113384 -0.00944863 0.00302356
0.00869274 -0.00264562 0.00340151
0.00888171 0.00850377 -0.020598
0.0171965 -0.0115273 0.00377945
0.0200311 -0.00585815 0.00510226
0.0170075 0.00113384 0.00585815
0.0111494 0.00302356 0.00510226
0.0062361 -0.0119053 -0.0115273
0.00548021 -0.0141729 0.00226767
0.00566918 -0.00850377 0.00226767
-0.00604712 -0.0041574 0.000944863
0.00491329 -0.0134171 0.00188973
0.0075589 -0.00736993 0.0107714
0.0107714 -0.00888171 0.00869274
-0.0175745 -0.000566918 -0.0103935
-0.0194642 0.000377945 -0.00736993
0.00283459 0.027779 0.0175745
0.00075589 0.0514005 0.0234326
-0.0145509 -0.00491329 -0.0247554
-0.0151178 -0.0268341 -0.0287238
0.0213539 -0.264751 -0.0436527
-0.0402512 0.192752 0.278735
-0.00510226 0.242641 -0.278357
-0.00075589 -0.0075589 -0.00566918
-0.00793685 -0.00793685 -0.0168186
-0.013984 0 -0.00396842
0.0196532 -0.0171965 0.00340151
0.0245664 -0.00736993 0.00566918
0.0190862 0.00529123 0.00718096
0.00888171 0.00850377 0.00548021
-0.000566918 0.00264562 0.00396842
Vibration 11
-0.00718096 -0.000566918 -0.0145509
-0.00680301 -0.00321253 -0.0317474
-0.00283459 -0.00548021 -0.0257003
-0.000188973 -0.00359048 -0.0143619
-0.000188973 -0.000188973 -0.00245664
-0.00377945 0.00188973 0.00302356
0.00245664 0.0020787 0.00680301
-0.00434637 0.00982658 0.0296687
-0.00472431 0.0185193 0.0546131
-0.00680301 -0.000377945 -0.0102045
0.0164406 -0.0173855 0.0111494
0.0224877 -0.020598 0.0190862
0.00283459 -0.00699199 0.00491329
-0.0226767 0.0103935 -0.0175745
-0.0268341 0.0124722 -0.0245664
0.0126612 -0.0126612 0.0162516
-0.00283459 -0.0075589 -0.020598
-0.00793685 -0.0396842 -0.0425188
-0.00888171 -0.0304246 -0.0228657
-0.00377945 0.0124722 0.0196532
0.00226767 0.0394953 0.0372276
0.00302356 0.0281569 0.0160627
-0.00472431 0.0294797 0.0493218
-0.0075589 0.000944863 0
0.00548021 -0.000377945 0.00132281
0.0100155 -0.00340151 -0.0117163
0.00396842 -0.00151178 -0.0062361
0.000566918 0.00188973 0.00491329
0.013795 -0.00529123 -0.0130391
0.000566918 -0.00075589 -0.00736993
-0.00699199 0.0041574 0.00377945
-0.0109604 0.00774788 0.0147399
-0.00718096 0.00661404 0.0153068
0.0156847 -0.0164406 -0.0260782
0.00812582 -0.00548021 -0.0196532
0.0175745 -0.00340151 -0.0041574
-0.00907068 -0.00472431 -0.0457314
0.00925966 -0.00359048 -0.0132281
0.0306136 -0.0279679 0.020787
0.0421409 -0.0336371 0.0359048
-0.0387394 0.0219208 -0.0289128
-0.0453534 0.0241885 -0.0398732
-0.0117163 -0.0708647 -0.0733214
-0.0132281 -0.0548021 -0.0394953
0.00604712 0.0702978 0.0676522
0.00812582 0.048377 0.0283459
-0.027401 0.0597153 0.0612271
-0.00472431 0.0226767 0.034771
0.0175745 0.0190862 0.0803134
0.00699199 -0.00812582 0.013795
-0.0109604 -0.00529123 -0.0349599
-0.0309915 0.0251334 0.0111494
0.00340151 -0.00340151 -0.0160627
-0.00982658 0.00510226 0.00359048
-0.0170075 0.0119053 0.0234326
-0.0105825 0.0096376 0.0243775
0.00510226 0.00491329 0.0188973
Vibration 12
0.00491329 -0.00321253 0.0105825
0.00491329 0.00151178 0.000944863
0.00113384 0.00359048 -0.00907068
-0.00226767 0.00170075 -0.0258892
-0.00245664 -0.00340151 -0.0257003
0.00132281 -0.00529123 0.00982658
-0.00699199 -0.0075589 -0.0657625
-0.000188973 -0.00944863 0.0578256
-0.00151178 -0.0130391 0.105825
0.0107714 -0.00642507 0.0156847
0.0164406 -0.00491329 0.0153068
0.0160627 -0.00453534 0.00831479
0.00869274 -0.00566918 0.00132281
0.00774788 -0.0103935 0.00529123
0.00925966 -0.0109604 0.0130391
0.00359048 -0.00245664 -0.00907068
0.000944863 0.00396842 -0.00264562
-0.00566918 0.00982658 0.0075589
-0.00529123 0.000566918 0.00925966
0.00170075 -0.0145509 0.00075589
0.00812582 -0.0173855 -0.00642507
0.0075589 -0.00736993 -0.00774788
0.00226767 -0.0289128 -0.000944863
-0.0249444 0.00907068 -0.0349599
-0.00869274 -0.00510226 -0.0489439
-0.0213539 0.00510226 0.000566918
-0.0096376 0.0149288 0.00718096
0.00170075 0.00491329 -0.034582
0.00907068 -0.00302356 -0.0156847
-0.0075589 0.0313695 0.041196
0.00907068 0.0376055 0.0298577
0.0228657 0.0270231 -0.013984
0.0196532 0.0111494 -0.0472432
0.00170075 0.00264562 0.0251334
-0.0154958 0.0130391 0.0145509
-0.0400622 -0.0130391 -0.0253223
0.00812582 0.00340151 0.00340151
-0.0175745 0.0062361 -0.00566918
0.020598 -0.00302356 0.0192752
0.0200311 -0.00264562 0.00736993
0.00548021 -0.0132281 0.00264562
0.00793685 -0.0145509 0.0162516
-0.0111494 0.020598 0.0132281
-0.0105825 0.00453534 0.0166296
0.013606 -0.02759 -0.0115273
0.0124722 -0.00944863 -0.0130391
0.00283459 -0.0313695 -0.00132281
0.0105825 -0.0332592 -0.00264562
-0.00661404 -0.0338261 -0.000377945
-0.0338261 0.0164406 -0.048188
-0.0120942 0.0234326 -0.0502667
-0.0493218 -0.0041574 -0.0253223
-0.0171965 0.0394953 0.075967
0.0107714 0.0506447 0.0559359
0.0360938 0.0315584 -0.0228657
0.0306136 0.00453534 -0.0810692
-0.00869274 -0.00812582 -0.0701088
Vibration 13
0.00718096 -0.00264562 -0.0370386
0.00718096 -0.00283459 -0.055369
0.00736993 -0.00302356 -0.0394953
0.00907068 -0.00226767 -0.0192752
0.00831479 -0.00113384 -0.0062361
0.00812582 -0.00132281 -0.0124722
0.00680301 -0.000944863 0.020787
0.00774788 0.00264562 0.0122832
0.00718096 0.00793685 0.0351489
0.00566918 -0.00132281 -0.0287238
0.00831479 -0.0175745 -0.0124722
0.00604712 -0.0166296 0.00377945
0.000188973 0.00132281 0.00302356
-0.00321253 0.0179524 -0.0130391
0 0.0153068 -0.0285349
-0.00188973 0.00075589 0.0211649
0.0075589 -0.00566918 -0.0292908
-0.0075589 0.0179524 0.00170075
-0.00793685 0.0179524 0.0221098
0.0062361 -0.0075589 0.00982658
0.0211649 -0.0338261 -0.0232436
0.020976 -0.0309915 -0.041574
0.00604712 -0.00604712 0.0328812
-0.0103935 0.0217318 0.0202201
0.000944863 0.00264562 0.0226767
0.0020787 -0.000377945 0.00869274
0.00151178 -0.00453534 0.00302356
-0.000188973 -0.0041574 0.0120942
-0.0544241 0.0330702 0.020976
0.00264562 -0.0130391 -0.0119053
0.00132281 -0.0213539 -0.0173855
-0.00075589 -0.020976 -0.00718096
-0.00188973 -0.0128501 0.00831479
-0.062361 0.054991 0.0684081
-0.00075589 -0.00453534 0.00151178
0.00491329 0.00736993 0.0151178
0.00793685 -0.00245664 -0.0746442
-0.00377945 -0.00850377 -0.0111494
0.0122832 -0.0315584 -0.0128501
0.00888171 -0.0292908 0.0166296
-0.00793685 0.0325033 -0.013606
-0.00132281 0.0268341 -0.0396842
-0.0194642 0.0370386 0.0102045
-0.0198421 0.0381725 0.0478101
0.0328812 -0.05518 -0.0336371
0.0319364 -0.0478101 -0.0631168
-0.00850377 -0.0102045 0.0381725
0.0105825 -0.00340151 0.0428968
0.0156847 -0.00283459 0.0351489
-0.0103935 0.0160627 0.0370386
-0.00812582 0.0232436 -0.000188973
-0.0185193 0.0402512 0.0245664
0.00434637 -0.0134171 -0.020409
0.00264562 -0.0283459 -0.0296687
-0.00151178 -0.0279679 -0.0115273
-0.00340151 -0.0134171 0.0154958
0.00736993 -0.00566918 0.0247554
Vibration 14
-0.00642507 -0.00472431 0.0325033
-0.00604712 -0.0128501 0.0444086
0.00132281 -0.0170075 0.020409
0.00718096 -0.0132281 -0.00245664
0.0075589 -0.00529123 -0.00510226
0.00075589 -0.00170075 0.0100155
0.013795 -0.00359048 -0.0251334
0.00132281 0.00491329 -0.00132281
0.00188973 0.0109604 -0.0117163
-0.0111494 -0.00264562 0.0262672
-0.0075589 0.0075589 0.0168186
-0.00680301 0.0075589 0.00113384
-0.00944863 -0.00453534 -0.00396842
-0.0147399 -0.0143619 0.00359048
-0.0160627 -0.0126612 0.0183303
-0.00566918 -0.00472431 -0.020598
0.00170075 -0.0192752 0.00869274
0.0149288 -0.0311805 -0.0113384
0.0145509 -0.0175745 -0.0181414
0.00170075 0.00944863 -0.00340151
-0.0107714 0.0151178 0.0109604
-0.00982658 -0.00132281 0.0156847
0.00075589 0.034582 -0.00245664
0.0149288 -0.0334482 -0.00944863
0.0154958 -0.00377945 -0.0243775
0.020976 -0.0109604 -0.0338261
0.0171965 -0.00377945 -0.0232436
0.0128501 0.00302356 -0.0151178
-0.0472432 0.0134171 -0.0075589
0.0141729 0.00359048 -0.0111494
0.00491329 0.0213539 0.0111494
-0.000566918 0.0300466 0.0198421
0.00377945 0.020976 0.00585815
-0.0602823 0.0568808 0.0714316
0.0162516 -0.0166296 -0.0464873
0.0253223 -0.0122832 -0.0294797
-0.0120942 -0.0162516 0.0650066
0.0153068 -0.013984 -0.0366607
-0.00453534 0.0162516 0.0219208
-0.00377945 0.0158737 -0.00642507
-0.0185193 -0.0228657 -0.00188973
-0.0213539 -0.0198421 0.0238105
0.0257003 -0.0496998 -0.0200311
0.0245664 -0.0266451 -0.0332592
-0.0211649 0.0328812 0.0190862
-0.0187083 0.00132281 0.0241885
0.000566918 0.0421409 -0.00170075
-0.0145509 0.0410071 -0.00245664
0.0156847 0.041574 -0.00151178
0.0241885 -0.0330702 -0.0190862
0.00396842 -0.0449755 0.013984
0.0315584 -0.0417629 -0.0170075
0.0175745 -0.00264562 -0.0168186
0.00151178 0.0283459 0.0222988
-0.00888171 0.0447865 0.0383614
-0.000944863 0.0289128 0.0119053
0.0111494 0.00075589 -0.0379835
Vibration 15
0.00510226 -0.00718096 0.00359048
0.00548021 -0.0103935 0.0075589
0.00982658 -0.0124722 0.00831479
0.013606 -0.0096376 0.0062361
0.0141729 -0.00699199 0.00396842
0.0102045 -0.0041574 0.00548021
0.0126612 -0.00793685 -0.0041574
0.0103935 0.00566918 0.0096376
0.0107714 0.0183303 0.0154958
-0.00680301 -0.000566918 -0.00548021
0.00377945 -0.00907068 0.00510226
-0.0102045 -0.00132281 -0.00321253
-0.0332592 0.0124722 -0.020409
-0.0510226 0.0243775 -0.0357158
-0.0376055 0.0168186 -0.0281569
-0.041574 0.0173855 -0.0257003
0.0100155 -0.0124722 0.00453534
0.0168186 -0.0041574 0.00585815
0.0166296 0.00453534 0.00264562
0.0100155 0.0041574 -0.00283459
0.00340151 -0.00680301 -0.00661404
0.00377945 -0.0145509 -0.00245664
0.0096376 0.0168186 -0.00472431
0.0495108 -0.0338261 0.0515895
0.00907068 -0.00680301 -0.00699199
-0.00245664 0.0166296 0.0113384
-0.00944863 0.0143619 0.0115273
0.00396842 -0.0100155 -0.00944863
0.00680301 -0.00434637 0.00377945
-0.0260782 0.027779 0.0239995