[Molden Format]
[FREQ]
-257.5
12.3
17.4
23.9
26.5
28.5
32.3
39.6
40.8
43.8
58.8
65.5
81.3
84.8
92.4
107.6
111.7
120.1
135.2
152.1
159.4
174.3
184.4
193.2
200.7
204.6
227.4
249.5
260.7
266.2
301.4
305.1
311.9
321.8
325.6
345.6
348.9
356.4
368.5
390.1
412.2
436.7
450.4
475.7
488.7
495.2
504.2
521.4
538.6
558.5
567.4
584.2
597.2
611.2
614.9
617.5
629.1
637.8
640.0
660.9
668.2
693.9
718.5
726.4
759.6
760.7
769.4
806.0
813.9
826.0
842.6
878.6
879.4
882.4
897.1
901.5
921.3
968.3
972.5
1000.7
1005.9
1009.1
1009.3
1017.0
1021.0
1024.0
1032.7
1044.1
1070.3
1075.1
1081.7
1101.0
1125.6
1162.4
1177.4
1183.4
1188.4
1195.8
1216.1
1234.0
1237.3
1255.0
1262.3
1266.3
1274.4
1280.8
1283.3
1285.9
1296.3
1306.3
1314.7
1327.2
1338.5
1341.6
1348.9
1359.0
1362.0
1366.2
1380.2
1392.8
1407.1
1426.6
1444.5
1476.1
1491.5
1501.7
1515.9
1521.5
1528.5
1541.8
1554.2
1579.6
1589.7
1603.9
1633.3
1670.3
1684.1
1691.5
1697.7
1707.3
1707.7
1709.7
1992.0
2453.7
2651.6
2653.2
2665.1
2673.2
2714.1
2714.6
2728.0
2744.1
2744.6
2746.1
2749.8
2749.9
2753.1
2755.8
2759.2
2764.0
2764.9
2767.2
2768.5
2772.1
2778.9
       
[FR-COORD]
C -2.03297 -3.58935 -1.11191
C 0.601311 -3.58935 -1.11191
C 1.92752 -1.28482 -1.11191
N 0.671231 0.943918 -1.10114
C -1.86403 0.950721 -1.00628
C -3.345 -1.27027 -1.06599
N -3.00485 3.37562 -0.851888
C -6.01084 -1.1499 -1.0847
N -8.19536 -1.02215 -1.11324
C -3.4051 -5.99043 -1.14045
C -2.97575 -7.71613 -3.10576
C -4.26341 -9.99174 -3.16699
C -5.9876 -10.5418 -1.21944
C -6.42167 -8.8545 0.761371
C -5.11983 -6.56982 0.779134
O -7.10877 -12.8261 -1.5063
C 4.6903 -1.11097 -1.07695
C 6.1777 -2.99824 -2.17734
C 8.79762 -2.80492 -2.12443
C 9.95659 -0.724899 -0.978122
C 8.46919 1.16691 0.114517
C 5.85135 0.980957 0.0595264
C 12.7619 -0.502667 -0.909903
C -8.95088 -13.5376 0.316529
C -1.60816 10.0431 0.15269
C -1.79089 5.3963 0.248121
C 0.0780457 5.40103 2.21457
C 1.48457 7.61427 2.28903
C 2.48971 9.90481 -0.876455
C 0.495486 3.42815 3.95822
C 2.35006 3.7341 5.76329
C 3.78644 5.98344 5.84095
C 3.34141 7.90869 4.1283
O 4.64797 9.66935 -0.98965
O -2.61614 7.53509 -0.596398
O -2.18906 10.7656 2.37935
H 1.63121 -5.37079 -1.07166
H -4.48848 3.72786 -2.04657
H -1.63405 -7.25107 -4.60243
H -3.97523 -11.3506 -4.68161
H -7.74996 -9.28347 2.26332
H -5.44354 -5.22604 2.31208
H 5.29369 -4.61169 -3.09953
H 9.94657 -4.27418 -2.98539
H 9.35622 2.80133 0.99683
H 4.68879 2.47894 0.899132
H 13.3991 1.31279 -1.70453
H 13.7224 -1.99933 -1.97684
H 13.4751 -0.593374 1.04237
H -9.55899 -15.3962 -0.384181
H -10.5392 -12.212 0.319931
H -8.10163 -13.7158 2.1934
H -0.637971 1.71701 3.89567
H 2.7231 2.25633 7.13806
H 5.25023 6.17525 7.27507
H 4.45427 9.6359 4.17497
H -2.33003 9.89801 3.96219

[FR-NORM-COORD]
Vibration 1
0.0020787 -0.00604712 -0.000188973
0.0020787 -0.00283459 0.00075589
-0.00075589 -0.00132281 -0.000188973
-0.00226767 -0.00226767 -0.00340151
-0.00321253 -0.00812582 -0.00736993
-0.00075589 -0.00925966 -0.00340151
-0.0168186 -0.0190862 -0.0141729
-0.00075589 -0.00642507 -0.00170075
-0.000377945 -0.00170075 0
0.00151178 -0.00491329 0.000566918
0.000566918 -0.00359048 -0.000377945
-0.00075589 -0.00245664 -0.00075589
-0.000566918 -0.00151178 -0.000188973
-0.000566918 -0.00151178 -0.000188973
0.000566918 -0.00245664 0.000188973
-0.000944863 -0.00132281 -0.000188973
-0.000377945 -0.000188973 0.000188973
-0.000188973 0.000377945 -0.000188973
0 0.000377945 -0.000188973
-0.000188973 0.000188973 0.000188973
-0.000566918 -0.000188973 0.000377945
-0.000566918 -0.000377945 0.000566918
-0.000188973 0.000188973 0.000377945
-0.00075589 -0.00075589 0.000188973
0.188406 -0.0697309 0.147966
-0.0393063 -0.0151178 -0.00075589
-0.0330702 -0.0117163 0.00396842
-0.123588 0.0442196 0.0170075
0.122643 0.0574477 -0.135493
0.00907068 -0.00944863 -0.0128501
0.0160627 0.0175745 -0.020598
-0.0134171 0.0332592 -0.0459203
-0.0718096 0.0406291 -0.0319364
0.110927 -0.0171965 0.000944863
-0.0387394 -0.0156847 0.0321253
-0.0718096 0.0185193 0.0555579
0.00377945 -0.00151178 0.0020787
-0.0166296 -0.0255113 -0.0158737
0.00075589 -0.00359048 -0.000188973
-0.0020787 -0.00245664 -0.00075589
-0.00132281 -0.000944863 -0.00075589
0.00113384 -0.00170075 -0.000188973
0 0.000188973 -0.000377945
0 0.000377945 0
-0.000377945 -0.00113384 0.00151178
-0.00113384 -0.00188973 0.00188973
0.000188973 0 0.000566918
-0.000188973 0.000188973 0.000377945
-0.000377945 -0.000188973 0.000377945
-0.00113384 -0.00075589 0.000566918
-0.000566918 -0.000566918 0
-0.00075589 -0.000566918 0
0.0377945 -0.0285349 -0.0115273
0.041196 0.0257003 -0.0190862
0.00888171 0.0521564 -0.0714316
-0.089573 0.0515895 -0.0309915
-0.314828 0.0740773 0.0544241
Vibration 2
0.00170075 0.00812582 -0.0120942
0.00170075 0.00944863 -0.0119053
0.000566918 0.0100155 -0.020409
-0.000566918 0.00944863 -0.0291018
-0.000566918 0.00831479 -0.0285349
0.000377945 0.00774788 -0.0217318
0.000566918 0.00944863 -0.0317474
0.000377945 0.00699199 -0.0241885
0.000377945 0.00661404 -0.0266451
0.00283459 0.00736993 0.00075589
0.00472431 -0.00434637 0.0115273
0.00661404 -0.00585815 0.0253223
0.00680301 0.00453534 0.0283459
0.00472431 0.0166296 0.0177634
0.00283459 0.0177634 0.00396842
0.00907068 0.00170075 0.0425188
0.000377945 0.0120942 -0.0188973
0.00245664 0.0143619 -0.0192752
0.00226767 0.0170075 -0.0177634
-0.000377945 0.0171965 -0.0156847
-0.00283459 0.0151178 -0.0151178
-0.00264562 0.0126612 -0.0166296
-0.00075589 0.020409 -0.0141729
0.0105825 0.0107714 0.0476211
0.0241885 0.000944863 0
-0.000944863 0.0020787 -0.0166296
-0.0166296 -0.0141729 -0.00132281
-0.00548021 -0.0221098 0.0175745
0.0325033 -0.0190862 0.0326923
-0.0404401 -0.0230547 -0.00585815
-0.0527234 -0.0398732 0.0096376
-0.041574 -0.0476211 0.0292908
-0.0181414 -0.0387394 0.0332592
0.0315584 -0.0349599 0.0466762
0.0156847 0.00850377 -0.0158737
0.00982658 -0.00302356 -0.00245664
0.00283459 0.0102045 -0.00434637
0.0126612 0.0162516 -0.0442196
0.00453534 -0.0124722 0.00888171
0.00812582 -0.0149288 0.0338261
0.00453534 0.0247554 0.0200311
0.00132281 0.0268341 -0.00434637
0.00434637 0.0141729 -0.020787
0.00434637 0.0187083 -0.0181414
-0.00491329 0.0154958 -0.013606
-0.00472431 0.0105825 -0.0160627
-0.00226767 0.0190862 -0.0183303
0.00170075 0.0187083 -0.0096376
-0.00188973 0.0262672 -0.0134171
0.0134171 0.00510226 0.0599043
0.00850377 0.00831479 0.0391173
0.0111494 0.0243775 0.0487549
-0.0489439 -0.0168186 -0.0211649
-0.0708647 -0.0472432 0.00661404
-0.0514005 -0.0608492 0.041196
-0.0096376 -0.0447865 0.048566
-0.00850377 -0.00736993 -0.00642507
Vibration 3
0.00907068 -0.00302356 -0.0107714
0.00907068 -0.00718096 -0.0103935
0.0124722 -0.00944863 -0.0119053
0.0173855 -0.00661404 -0.0128501
0.0173855 -0.00264562 -0.0164406
0.013606 -0.000377945 -0.0164406
0.0175745 -0.00245664 -0.0198421
0.013795 0.00434637 -0.0217318
0.0141729 0.00831479 -0.0268341
0.00434637 -0.000377945 -0.00264562
0.00245664 -0.0102045 0.00585815
-0.00264562 -0.00774788 0.0153068
-0.00566918 0.00491329 0.0160627
-0.00377945 0.0151178 0.00793685
0.00132281 0.0120942 -0.00132281
-0.0105825 0.0062361 0.0257003
0.0132281 -0.0173855 -0.0113384
0.00642507 -0.0115273 -0.0304246
0.00699199 -0.020976 -0.0289128
0.013984 -0.0362827 -0.00793685
0.020598 -0.0419519 0.0107714
0.0198421 -0.0321253 0.00850377
0.0149288 -0.0474321 -0.00529123
-0.0134171 0.0187083 0.027779
-0.0338261 0.00075589 0.0166296
0.00566918 -0.00132281 -0.0100155
0.00132281 0.00377945 -0.00604712
-0.0194642 0.0166296 0.0103935
-0.0292908 0.0572587 0.0328812
0.0153068 -0.0020787 -0.0160627
0.00850377 0.00434637 -0.0102045
-0.0126612 0.0171965 0.0062361
-0.0268341 0.0230547 0.0168186
-0.0258892 0.0842818 0.041574
-0.00491329 -0.00283459 -0.00491329
-0.0500777 -0.0198421 0.0194642
0.00642507 -0.00869274 -0.00774788
0.0198421 -0.00340151 -0.0234326
0.00472431 -0.0202201 0.00491329
-0.0041574 -0.0153068 0.0217318
-0.00604712 0.0249444 0.00888171
0.00302356 0.0198421 -0.00774788
0.000377945 0.00075589 -0.0462983
0.0020787 -0.0160627 -0.0438416
0.0264562 -0.0540462 0.0270231
0.0245664 -0.0362827 0.0221098
0.0219208 -0.0410071 0.0151178
0.00944863 -0.0391173 -0.0221098
0.0143619 -0.0719986 -0.0062361
-0.0166296 0.0166296 0.0362827
-0.0105825 0.0219208 0.020409
-0.0151178 0.0258892 0.0292908
0.0306136 -0.0119053 -0.027401
0.0187083 0 -0.0175745
-0.0175745 0.0222988 0.0107714
-0.0432747 0.0334482 0.0300466
-0.0476211 -0.0323143 0.0126612
Vibration 4
0.00188973 -0.000377945 -0.00170075
0.0020787 0.000188973 0.00377945
0.00264562 0 -0.00321253
0.00075589 -0.000377945 -0.0107714
0.00132281 -0.000566918 -0.0103935
0.00132281 -0.000566918 -0.0102045
0.00132281 -0.000566918 -0.00661404
0.00132281 0 -0.0188973
0.00151178 0.00113384 -0.027401
0.00170075 -0.000188973 0.0020787
0.013795 -0.0111494 0.0141729
0.0111494 -0.0096376 0.0164406
-0.00453534 0.00302356 0.0062361
-0.0156847 0.0132281 -0.00491329
-0.0122832 0.0111494 -0.00680301
-0.00680301 0.00377945 0.00907068
0.00226767 0.00340151 -0.00132281
0.00888171 -0.0289128 0.062361
0.00831479 -0.0253223 0.0659514
0.00283459 0.0115273 0.00453534
-0.00264562 0.0440306 -0.0595264
-0.00226767 0.0391173 -0.0614161
0.00245664 0.0147399 0.00888171
-0.0251334 0.0183303 -0.00377945
-0.0126612 -0.00377945 0.0298577
-0.00151178 -0.00396842 0.00170075
0.00491329 -0.00925966 -0.0041574
0.00321253 -0.00831479 -0.00132281
-0.0164406 0.013606 0.00812582
0.0132281 -0.0151178 -0.0126612
0.0215429 -0.020976 -0.0202201
0.0213539 -0.020976 -0.0188973
0.0119053 -0.0143619 -0.00925966
-0.0164406 0.0185193 -0.00377945
-0.00812582 -0.00113384 0.0149288
-0.00680301 -0.0219208 0.0372276
0.00113384 -0.000188973 0.0128501
-0.000188973 0.00151178 -0.00377945
0.0251334 -0.020598 0.0213539
0.020409 -0.0177634 0.0255113
-0.0270231 0.0226767 -0.0122832
-0.020976 0.0188973 -0.0154958
0.0145509 -0.0587705 0.109037
0.0126612 -0.0515895 0.116218
-0.0075589 0.0723765 -0.106958
-0.00566918 0.0629279 -0.108092
0.00453534 0.00604712 -0.00888171
0.0062361 0.00340151 0.0283459
-0.00340151 0.0364717 0.0122832
-0.0241885 0.0164406 0.000188973
-0.0213539 0.0228657 -0.0245664
-0.0421409 0.0253223 0.00472431
0.0134171 -0.0151178 -0.0130391
0.0287238 -0.0260782 -0.027401
0.0287238 -0.0260782 -0.0258892
0.0109604 -0.013984 -0.00774788
0.00113384 -0.0338261 0.0313695
Vibration 5
-0.0100155 0.0100155 -0.0198421
-0.0102045 0.00774788 -0.0232436
-0.00831479 0.00680301 -0.0177634
-0.00718096 0.0075589 -0.0154958
-0.00718096 0.00925966 -0.0130391
-0.00869274 0.0103935 -0.0132281
-0.00491329 0.00982658 -0.00680301
-0.00869274 0.0100155 -0.00434637
-0.00888171 0.00888171 0.00396842
-0.00982658 0.0096376 -0.0171965
-0.0364717 0.0228657 -0.034582
-0.0287238 0.0183303 -0.0253223
0.0075589 0.000188973 0.00151178
0.0309915 -0.0105825 0.0158737
0.0215429 -0.00510226 0.00604712
0.0158737 -0.00510226 0.0107714
-0.00831479 0.00302356 -0.0075589
-0.0062361 -0.00283459 0.00510226
-0.00604712 -0.0113384 0.0241885
-0.0075589 -0.013606 0.0304246
-0.0096376 -0.00642507 0.0149288
-0.00982658 0.00188973 -0.0041574
-0.00718096 -0.0258892 0.0557469
0.0616051 -0.0300466 0.0472432
0.000188973 0.00566918 0.0143619
-0.00283459 0.00585815 -0.00226767
0.00226767 -0.00113384 -0.00680301
0.00585815 -0.00359048 -0.00585815
-0.00321253 0.00907068 -0.000566918
0.00434637 -0.00604712 -0.0126612
0.0113384 -0.013984 -0.0185193
0.0162516 -0.0171965 -0.0185193
0.0134171 -0.0119053 -0.0119053
-0.00321253 0.0122832 -0.0062361
-0.00377945 0.00907068 0.00699199
0.00736993 -0.00302356 0.0190862
-0.0119053 0.00661404 -0.0287238
-0.00661404 0.013606 -0.00340151
-0.0627389 0.0362827 -0.0538572
-0.0489439 0.027779 -0.0377945
0.0565028 -0.0232436 0.034771
0.0396842 -0.0128501 0.0166296
-0.00453534 -0.00132281 0.000944863
-0.00434637 -0.0162516 0.0349599
-0.0109604 -0.0075589 0.0185193
-0.0109604 0.00736993 -0.0153068
0.0075589 -0.0151178 0.0927855
-0.00529123 -0.0117163 0.0374166
-0.0238105 -0.0634948 0.0600933
0.0634948 -0.0323143 0.0519675
0.0496998 -0.0444086 0.0871164
0.103179 -0.0306136 0.0283459
0.000377945 -0.00340151 -0.0124722
0.0132281 -0.0179524 -0.0232436
0.0222988 -0.0236216 -0.0238105
0.0168186 -0.013984 -0.0117163
0.0111494 -0.00925966 0.0158737
Vibration 6
-0.0119053 0.00774788 -0.00680301
-0.0113384 0.00774788 -0.00188973
-0.0109604 0.00699199 0.000944863
-0.00944863 0.0075589 0.00434637
-0.0096376 0.00812582 0.00075589
-0.0105825 0.00869274 -0.00982658
-0.00850377 0.00812582 0.00925966
-0.0103935 0.0120942 -0.0253223
-0.0100155 0.0166296 -0.0402512
-0.00774788 0.00585815 -0.00566918
0.0351489 -0.0183303 0.0245664
0.0489439 -0.0260782 0.0321253
0.0173855 -0.0096376 0.00888171
-0.0294797 0.0160627 -0.0234326
-0.041385 0.0228657 -0.0302356
0.0385504 -0.0217318 0.0221098
-0.0107714 0.00396842 0.00226767
-0.013984 0.0166296 -0.0234326
-0.013795 0.0122832 -0.0211649
-0.0107714 -0.00510226 0.00699199
-0.00774788 -0.0173855 0.0323143
-0.00812582 -0.0122832 0.0292908
-0.0103935 -0.0102045 0.0102045
0.0115273 -0.00850377 0
0.00132281 0.00472431 0.0188973
-0.00510226 0.00510226 0.0109604
0.00377945 0.000188973 0.00302356
0.0103935 -0.00396842 -0.00453534
-0.00604712 -0.00453534 -0.0105825
0.00718096 -0.000944863 0.00075589
0.0190862 -0.00718096 -0.0103935
0.027401 -0.0120942 -0.0194642
0.0230547 -0.0103935 -0.0164406
-0.00680301 -0.00510226 -0.0230547
-0.00793685 0.0075589 0.0198421
0.0166296 0.00151178 0.0238105
-0.0109604 0.00793685 0.00075589
-0.0124722 0.0113384 0.0151178
0.0591484 -0.0313695 0.0417629
0.0839038 -0.0453534 0.0559359
-0.0557469 0.0302356 -0.0425188
-0.0763449 0.041196 -0.0536682
-0.0170075 0.0304246 -0.0447865
-0.0158737 0.0222988 -0.041385
-0.00529123 -0.0304246 0.0538572
-0.0062361 -0.0211649 0.0474321
-0.0075589 -0.00434637 0.0258892
-0.0122832 -0.00245664 -0.00226767
-0.0111494 -0.0279679 0.0096376
0.0402512 -0.0249444 0.0185193
0.000188973 -0.0219208 -0.0502667
-0.0213539 0.0285349 0.0183303
0.000944863 0.00283459 0.00736993
0.0221098 -0.00812582 -0.0122832
0.0372276 -0.0173855 -0.0289128
0.0291018 -0.0141729 -0.0232436
0.0253223 -0.000944863 0.0232436
Vibration 7
-0.0156847 0.00661404 0.00718096
-0.0154958 0.00170075 0.00793685
-0.00982658 -0.00188973 0.00566918
-0.00529123 0.000944863 0.00585815
-0.00510226 0.0062361 0.00793685
-0.0105825 0.00925966 0.00982658
0.000377945 0.00907068 0.00453534
-0.0102045 0.0160627 0.0141729
-0.0100155 0.0221098 0.0188973
-0.013606 0.00548021 -0.000566918
0.00982658 0.0041574 0.00510226
0.0262672 -0.00491329 0.00188973
0.0183303 -0.0128501 -0.00736993
-0.0102045 -0.00888171 -0.0170075
-0.0258892 0.000377945 -0.013606
0.0421409 -0.0247554 -0.00604712
-0.00944863 -0.00982658 -0.00188973
-0.0179524 -0.0315584 0.0228657
-0.0173855 -0.0406291 0.0145509
-0.00736993 -0.027401 -0.0194642
0.00170075 -0.00585815 -0.0444086
0.00075589 0.00226767 -0.0349599
-0.00642507 -0.0381725 -0.0279679
0.0440306 -0.0400622 -0.0102045
0.0120942 0.00982658 -0.0156847
0.00585815 0.00944863 -0.00132281
0.00075589 0.0115273 0.00302356
-0.00132281 0.0128501 0.00774788
0.0179524 0.0149288 0.0151178
-0.00396842 0.0126612 0.00566918
-0.0130391 0.0160627 0.0143619
-0.0171965 0.0185193 0.020787
-0.0113384 0.0166296 0.0171965
0.0192752 0.0188973 0.0308025
0.0126612 0.00850377 -0.0103935
0.00264562 0.0196532 -0.0213539
-0.0198421 -0.000944863 0.00888171
0.00188973 0.0102045 0.00283459
0.0164406 0.00982658 0.0128501
0.0459203 -0.00661404 0.00718096
-0.0194642 -0.0132281 -0.0264562
-0.0472432 0.00245664 -0.0198421
-0.0251334 -0.0421409 0.048377
-0.0245664 -0.0578256 0.034393
0.00944863 0.00396842 -0.0702978
0.00812582 0.0179524 -0.0527234
-0.000566918 -0.0368497 -0.0198421
-0.0158737 -0.0364717 -0.0389284
-0.00113384 -0.0519675 -0.0302356
0.0706758 -0.0510226 -0.00434637
0.0272121 -0.0602823 -0.0228657
0.0383614 -0.020598 -0.00585815
-0.000944863 0.0107714 0.000944863
-0.0170075 0.0168186 0.0162516
-0.0249444 0.0215429 0.0283459
-0.013984 0.0183303 0.0219208
-0.00529123 0.0258892 -0.0185193
Vibration 8
0.00340151 0.000188973 0.00491329
0.00359048 0.00472431 -0.0105825
0.000377945 0.00642507 -0.0194642
-0.00264562 0.00472431 -0.0238105
-0.0020787 0.000944863 -0.00793685
0.000566918 -0.00132281 0.013795
-0.0041574 0.000566918 -0.0107714
0.000188973 -0.00302356 0.0487549
-0.000188973 -0.00359048 0.0822031
0.00736993 -0.00188973 0.00850377
0.0211649 -0.00793685 0.0166296
0.020598 -0.00736993 0.0128501
0.00453534 -0.00075589 0.000566918
-0.00642507 0.00302356 -0.00510226
-0.00434637 0.00188973 -0.00075589
0.0020787 0.00113384 -0.00453534
0.000188973 0.00888171 -0.0179524
0.00359048 0.00944863 -0.0141729
0.00340151 0.00642507 -0.000188973
0 0.00302356 0.0096376
-0.00321253 0.00472431 0.00151178
-0.00340151 0.00793685 -0.0124722
0.000566918 -0.0119053 0.0393063
-0.0257003 0.0153068 -0.0268341
0.00188973 -0.000944863 -0.00604712
-0.00359048 0 -0.0109604
-0.00434637 -0.00377945 -0.0102045
-0.00151178 -0.00585815 -0.00699199
0.00377945 0.00529123 0.000566918
-0.00718096 -0.00718096 -0.0132281
-0.00566918 -0.013606 -0.013795
-0.00188973 -0.0160627 -0.0109604
0 -0.0122832 -0.00718096
0.00529123 0.0145509 0.00925966
-0.00075589 0.00132281 -0.0103935
-0.000188973 -0.00321253 -0.00585815
0.00680301 0.00642507 -0.0141729
-0.00226767 -0.000377945 -0.0130391
0.0321253 -0.0126612 0.0247554
0.0313695 -0.0115273 0.0185193
-0.0166296 0.00699199 -0.0130391
-0.0126612 0.0041574 -0.00434637
0.0062361 0.0117163 -0.020787
0.00642507 0.00604712 0.00434637
-0.00642507 0.00302356 0.00793685
-0.00585815 0.00888171 -0.0179524
0.0143619 0.0924076 0.290829
-0.00453534 0.129068 -0.16365
-0.00680301 -0.28516 0.0298577
-0.027401 0.0173855 -0.0311805
-0.0181414 0.0243775 -0.0496998
-0.0506447 0.013795 -0.0156847
-0.0105825 -0.00491329 -0.0151178
-0.0075589 -0.0164406 -0.0164406
-0.000566918 -0.0211649 -0.0117163
0.00283459 -0.0141729 -0.00453534
-0.0041574 -0.00566918 -0.00736993
Vibration 9
-0.0062361 -0.00472431 0.00359048
-0.00604712 -0.00302356 -0.00434637
-0.00736993 -0.00245664 -0.00812582
-0.00869274 -0.00340151 -0.013606
-0.00831479 -0.0041574 -0.00434637
-0.00718096 -0.00510226 0.00907068
-0.00604712 -0.00283459 -0.00604712
-0.0075589 -0.00548021 0.0313695
-0.00774788 -0.00566918 0.0529123
-0.00396842 -0.00604712 0.00453534
0.00434637 -0.00812582 0.00793685
0.00642507 -0.00907068 0.00548021
-0.000944863 -0.00831479 -0.00075589
-0.00850377 -0.00699199 -0.00359048
-0.00982658 -0.00604712 -0.00075589
0.000944863 -0.00869274 -0.00340151
-0.00774788 0.00151178 -0.00264562
-0.00113384 0.0107714 -0.00869274
-0.00132281 0.0164406 -0.000188973
-0.00907068 0.0119053 0.0153068
-0.0162516 0.00302356 0.0213539
-0.0154958 -0.0020787 0.0122832
-0.0103935 0.0257003 0.0170075
-0.0102045 -0.00548021 -0.013606
0.0160627 -0.00548021 -0.0154958
0.0020787 -0.00340151 -0.0124722
0.00396842 -0.00642507 -0.0143619
0.00982658 -0.0102045 -0.0141729
0.020598 0.0296687 0.00944863
0.000377945 -0.00944863 -0.0164406
0.0062361 -0.0190862 -0.0211649
0.0151178 -0.0245664 -0.0228657
0.0160627 -0.020409 -0.0183303
0.0279679 0.0818251 0.0457314
0.00831479 -0.00226767 -0.0154958
0.0143619 -0.00226767 -0.0168186
-0.00434637 -0.00226767 -0.0062361
-0.0062361 -0.0020787 -0.00510226
0.00944863 -0.00869274 0.0122832
0.0132281 -0.0103935 0.00793685
-0.0134171 -0.00642507 -0.00774788
-0.0154958 -0.00566918 -0.00226767
0.00472431 0.0141729 -0.0198421
0.00396842 0.0238105 -0.00585815
-0.0217318 -0.000188973 0.0326923
-0.0211649 -0.00888171 0.0170075
-0.0153068 -0.0661404 -0.19861
0.00529123 -0.0984547 0.205413
-0.0230547 0.266829 0.0323143
-0.00793685 -0.00566918 -0.0154958
-0.00907068 -0.0041574 -0.0239995
-0.0213539 -0.00472431 -0.00850377
-0.00718096 -0.00453534 -0.0145509
0.00396842 -0.0217318 -0.0236216
0.020598 -0.0319364 -0.02759
0.0222988 -0.0241885 -0.0183303
0.00774788 -0.00151178 -0.0170075
Vibration 10
-0.00642507 -0.00944863 0.00491329
-0.00661404 -0.0103935 0.0192752
-0.00699199 -0.0102045 0.0236216
-0.00736993 -0.0107714 0.0236216
-0.00793685 -0.00944863 0.0117163
-0.00736993 -0.00944863 -0.00529123
-0.00491329 -0.00888171 0.0149288
-0.00718096 -0.0122832 -0.0381725
-0.00680301 -0.0156847 -0.0701088
-0.00831479 -0.00869274 0.00132281
-0.0185193 -0.00264562 -0.00585815
-0.020409 -0.00188973 -0.00642507
-0.0107714 -0.00718096 0.000377945
-0.00113384 -0.0122832 0.00699199
-0.000566918 -0.0126612 0.00699199
-0.0122832 -0.0062361 -0.000377945
-0.00718096 -0.00396842 0.0217318
-0.00359048 0.00264562 0.0153068
-0.00434637 0.0179524 -0.00132281
-0.00888171 0.0260782 -0.0115273
-0.0124722 0.0158737 0.000944863
-0.0117163 0.00075589 0.0177634
-0.0096376 0.0406291 -0.0298577
0.00283459 -0.0151178 0.0117163
0.0185193 -0.00869274 -0.0171965
0.00472431 -0.00736993 0.0041574
0.00831479 -0.00377945 0.000566918
0.0128501 -0.0062361 -0.00736993
0.0211649 0.0171965 0.00548021
0.00699199 0 0.00566918
0.0117163 -0.000377945 0.000566918
0.0179524 -0.0041574 -0.00869274
0.0181414 -0.00718096 -0.0120942
0.0283459 0.0668963 0.0402512
0.00831479 -0.00888171 -0.00245664
0.0219208 0.00680301 -0.0211649
-0.00680301 -0.0103935 0.0247554
-0.00907068 -0.00793685 0.0202201
-0.0251334 0.000944863 -0.0105825
-0.0285349 0.00264562 -0.0120942
0.00548021 -0.0160627 0.0119053
0.0062361 -0.0160627 0.0113384
-0.000377945 -0.00302356 0.0222988
-0.00132281 0.0236216 -0.00699199
-0.0164406 0.020409 -0.00302356
-0.0149288 -0.00642507 0.0262672
-0.027779 0.123966 0.14721
-0.0151178 0.154202 -0.194453
0.0141729 -0.155335 -0.0472432
0.000566918 -0.013795 0.0103935
0.00075589 -0.0177634 0.0281569
0.0175745 -0.0198421 0.00453534
0.00188973 0.00302356 0.0128501
0.0105825 0.00226767 0.00377945
0.0222988 -0.00434637 -0.0132281
0.0228657 -0.0100155 -0.0188973
0.0188973 0.0162516 -0.0162516
Vibration 11
0.00245664 0.0100155 0.0394953
0.0020787 0.0096376 0.0561249
0.00188973 0.0096376 0.0302356
0.00283459 0.0100155 0.000188973
0.0020787 0.0102045 -0.00604712
0.0020787 0.0100155 0.0113384
0.000566918 0.0119053 -0.0308025
0.0020787 0.00793685 -0.00188973
0.0020787 0.00491329 -0.0130391
0.00529123 0.00850377 0.0338261
0.00453534 0.0260782 0.0181414
0.00680301 0.0257003 0.000188973
0.0105825 0.0075589 -0.00132281
0.0141729 -0.0113384 0.0154958
0.0111494 -0.00925966 0.0328812
0.0107714 0.0102045 -0.0228657
0.00245664 0.00264562 0.0230547
-0.0107714 -0.000944863 0.0111494
-0.0100155 -0.00944863 -0.00566918
0.00340151 -0.0145509 -0.00982658
0.0162516 -0.0132281 0.00529123
0.0151178 -0.0041574 0.0213539
0.00472431 -0.0221098 -0.0326923
0.00888171 -0.00642507 -0.0317474
-0.00434637 0.00661404 0.0149288
-0.0126612 0.0107714 -0.0171965
-0.0194642 0.0020787 -0.0103935
-0.00151178 -0.00944863 -0.013795
-0.00491329 0.00661404 -0.00774788
-0.0360938 -0.00075589 -0.0096376
-0.0255113 -0.0198421 -0.0173855
0.000377945 -0.0359048 -0.0266451
0.0109604 -0.0302356 -0.0228657
-0.00472431 0.0105825 -0.0119053
-0.00718096 0.0141729 -0.013606
-0.0075589 -0.0190862 0.0224877
0.0020787 0.0100155 0.0835259
0.0122832 0.0075589 -0.0457314
0.00170075 0.0406291 0.0202201
0.00491329 0.0391173 -0.0122832
0.0187083 -0.0272121 0.0149288
0.0124722 -0.0222988 0.0444086
-0.0221098 0.00377945 0.013795
-0.0200311 -0.0111494 -0.0160627
0.027401 -0.0181414 0.00340151
0.0239995 -0.00264562 0.0308025
0.00283459 -0.0232436 -0.0368497
-0.00812582 -0.0238105 -0.0417629
0.020787 -0.0253223 -0.0387394
0.00491329 0.00283459 -0.0529123
0.0115273 -0.00321253 -0.0168186
0.00812582 -0.0294797 -0.0336371
-0.0559359 0.0122832 -0.00321253
-0.0366607 -0.0222988 -0.0171965
0.0111494 -0.0525344 -0.0353379
0.0291018 -0.041574 -0.027401
-0.0134171 -0.0370386 0.0120942
Vibration 12
-0.00774788 -0.00264562 -0.000566918
-0.00680301 -0.0149288 0.00510226
0.00396842 -0.0215429 0.0102045
0.0132281 -0.0156847 -0.00377945
0.013984 -0.00340151 -0.0111494
0.00340151 0.00340151 -0.000188973
0.0247554 0.00302356 -0.0287238
0.00396842 0.0222988 0.0194642
0.00491329 0.0434637 0.0425188
-0.0187083 0.00359048 -0.0075589
-0.0111494 -0.000377945 -0.00264562
-0.0113384 -0.000188973 -0.00453534
-0.0190862 0.00264562 -0.0103935
-0.0353379 0.0111494 -0.0213539
-0.0349599 0.0109604 -0.0196532
-0.0100155 -0.0020787 -0.00642507
0.00396842 -0.0215429 0.0247554
0.0141729 -0.0111494 0.0217318
0.0132281 0.0115273 0.00888171
0.00132281 0.0228657 0.000377945
-0.00888171 0.00396842 0.0190862
-0.00718096 -0.0183303 0.0311805
-0.000566918 0.0580146 -0.0306136
0.0317474 -0.0302356 0.0247554
-0.00491329 0.000377945 0.0149288
0.0215429 0 -0.0217318
0.0117163 -0.000944863 -0.0126612
0.00566918 0.00283459 -0.00132281
-0.00151178 0.013795 0.00566918
0.0100155 -0.00321253 -0.0147399
0.00226767 -0.00245664 -0.00718096
-0.00359048 0.00113384 0.00340151
-0.00226767 0.0041574 0.00661404
-0.00642507 -0.0190862 -0.0217318
0.02759 0.00170075 -0.0257003
-0.0258892 -0.0400622 0.0232436
-0.0149288 -0.0194642 0.0062361
0.034582 0.00548021 -0.0402512
-0.00283459 -0.00434637 0.00340151
-0.00359048 -0.00359048 0
-0.0478101 0.0175745 -0.0304246
-0.0462983 0.0160627 -0.0264562
0.0230547 -0.0185193 0.0262672
0.0213539 0.0215429 0.00283459
-0.0183303 0.00850377 0.020409
-0.0149288 -0.0300466 0.041574
-0.034204 0.0818251 -0.00359048
0.00529123 0.0914627 -0.0721875
0.0251334 0.0294797 -0.041385
0.0565028 -0.0445975 0.041196
0.00699199 -0.0599043 0.0428968
0.0627389 -0.00680301 0.0130391
0.0141729 -0.00566918 -0.0217318
0.00075589 -0.00434637 -0.00888171
-0.00944863 0.00132281 0.0096376
-0.00812582 0.0075589 0.0153068
-0.0264562 -0.0663294 0.00888171
Vibration 13
0.0132281 -0.00396842 -0.0145509
0.0130391 -0.000188973 -0.0171965
0.0105825 0.00151178 0.000566918
0.00850377 0.00075589 0.0153068
0.00812582 -0.00377945 0.00793685
0.0113384 -0.00529123 -0.000944863
-0.00321253 -0.00850377 0.00302356
0.0111494 -0.00642507 0.00907068
0.0109604 -0.00585815 0.0213539
0.00850377 -0.000944863 -0.0179524
0.0122832 -0.0126612 -0.00642507
-0.00075589 -0.00566918 -0.0041574
-0.0160627 0.0124722 -0.0126612
-0.0226767 0.0260782 -0.0255113
-0.0100155 0.0181414 -0.0279679
-0.0289128 0.0185193 -0.00831479
0.0109604 0.000944863 -0.000188973
0.00907068 -0.00321253 0.00340151
0.00925966 -0.00699199 0.00188973
0.0126612 -0.00585815 -0.00377945
0.0153068 -0.00113384 -0.00831479
0.0147399 0.00188973 -0.00566918
0.0132281 -0.0105825 -0.00566918
0.0279679 -0.00321253 0.0408181
0.000944863 -0.0119053 0.00982658
-0.0202201 -0.00377945 0.00982658
-0.0200311 -0.000188973 0.0102045
0.00925966 -0.0179524 -0.0236216
-0.00774788 -0.0338261 -0.0472432
-0.0529123 0.0196532 0.0394953
-0.054991 0.0234326 0.041196
-0.0164406 -0.000188973 0.00170075
0.0198421 -0.0228657 -0.0336371
0.00396842 0.0542351 -0.00585815
-0.0289128 -0.00510226 0.0158737
0.0258892 -0.0109604 0.0160627
0.0147399 0.000566918 -0.0304246
-0.00340151 -0.0175745 0.000377945
0.0257003 -0.0279679 0.00075589
0.00245664 -0.0147399 0.00453534
-0.0383614 0.0430858 -0.034393
-0.013984 0.02759 -0.0370386
0.00718096 -0.0041574 0.00699199
0.00661404 -0.0109604 0.00529123
0.0177634 -0.000188973 -0.0128501
0.0170075 0.00472431 -0.0075589
0.0164406 -0.0130391 -0.00850377
0.0100155 -0.013984 -0.00396842
0.013984 -0.00925966 -0.00585815
0.0368497 -0.013795 0.0614161
0.00925966 -0.0255113 0.076156
0.0769118 0.0141729 0.020409
-0.0754001 0.0340151 0.0595264
-0.0839038 0.0428968 0.0699199
-0.0145509 0.000377945 -0.000188973
0.0538572 -0.0434637 -0.0667073
0.0236216 -0.0115273 0.0154958
Vibration 14
0.0115273 -0.00075589 0.0173855
0.0113384 0.00396842 0.0213539
0.00718096 0.00680301 0.00831479
0.00377945 0.00491329 -0.000188973
0.00340151 0 0.00396842
0.00793685 -0.00264562 0.00925966
-0.00604712 -0.00472431 0.00377945
0.00774788 -0.00699199 0.00434637
0.0075589 -0.0107714 -0.000377945
0.00774788 0.00188973 0.0128501
0.0188973 -0.00170075 0.0185193
0.00264562 0.00812582 0.00340151
-0.0222988 0.0196532 -0.0154958
-0.0336371 0.0228657 -0.020787
-0.0185193 0.013984 -0.00661404
-0.0410071 0.0313695 -0.0338261
0.0075589 0.00774788 0.00245664
0.00396842 0.00642507 -0.00075589
0.0041574 0.00132281 -0.00226767
0.00907068 -0.00245664 -0.000188973
0.0128501 0.00075589 -0.000377945
0.0122832 0.00585815 0.00075589
0.0096376 -0.0107714 0.0020787
0.0461093 -0.0243775 0.0323143
-0.0120942 0.00113384 -0.027779
-0.0181414 -0.00151178 0.0113384
-0.0145509 -0.00359048 0.00699199
-0.0289128 0.00472431 0.0196532
-0.00718096 -0.0122832 0.0151178
0.013984 -0.020787 -0.0188973
0.0379835 -0.0359048 -0.0410071
0.0226767 -0.0266451 -0.027401
-0.0158737 -0.00396842 0.00812582
-0.00793685 -0.0243775 0.0311805
-0.0285349 -0.00472431 0.0154958
-0.0126612 0.0514005 -0.0451645
0.0145509 0.0062361 0.0317474
-0.00718096 -0.00982658 0.00377945
0.0404401 -0.0119053 0.034582
0.0102045 0.00604712 0.00661404
-0.0563138 0.0340151 -0.0376055
-0.0279679 0.0170075 -0.0111494
0.000377945 0.00907068 -0.00188973
0.00075589 0 -0.00434637
0.0164406 -0.00113384 -0.000566918
0.0153068 0.00774788 0.00132281
0.0160627 -0.0145509 -0.00113384
0.0062361 -0.0160627 0.00642507
0.00736993 -0.00888171 0.00302356
0.0585815 -0.0311805 0.0394953
0.0183303 -0.0578256 0.104691
0.121887 -0.0226767 -0.00170075
0.0187083 -0.0238105 -0.0219208
0.0663294 -0.0532903 -0.0674632
0.041385 -0.0374166 -0.0449755
-0.0315584 0.00566918 0.0230547
-0.020409 0.082959 -0.0283459
Vibration 15
-0.000566918 0.00340151 -0.0285349
-0.000566918 -0.00226767 -0.0213539
0.00510226 -0.00566918 0.00869274
0.0103935 -0.00188973 0.013795
0.0100155 0.00245664 -0.00321253
0.00529123 0.00548021 -0.0141729
0.00340151 -0.000188973 -0.00907068
0.00566918 0.0181414 0.0062361
0.00642507 0.0357158 0.0317474
-0.00264562 0.00472431 -0.0304246
-0.013795 0.00245664 -0.0304246
-0.0041574 -0.0041574 -0.0111494
0.0160627 -0.00548021 0.00604712
0.0219208 0.00113384 0.00170075
0.0130391 0.00566918 -0.0160627
0.0332592 -0.0177634 0.034582
0.00566918 -0.0154958 0.0281569
0.00548021 -0.0202201 0.034771
0.00510226 -0.0149288 0.0211649
0.00661404 -0.0041574 0.000377945
0.00793685 -0.0117163 0.0153068
0.00793685 -0.0175745 0.0294797
0.00585815 0.0179524 -0.0445975
-0.0251334 0.0313695 -0.00491329
-0.0096376 0.00226767 -0.0120942
-0.0211649 0.00245664 0.0107714
-0.020598 0.000944863 0.0096376
-0.0196532 -0.000188973 0.0075589
-0.0113384 -0.0232436 -0.00812582
-0.0132281 -0.00566918 0.000188973
0.00566918 -0.0183303 -0.0168186
0.0111494 -0.0219208 -0.0217318