[Molden Format]
[FREQ]
-670.0
11.6
17.1
25.2
28.4
31.5
33.8
36.0
41.3
45.9
49.2
54.0
58.5
62.5
65.7
80.9
86.4
107.2
120.5
124.3
132.0
135.3
144.6
178.0
188.3
201.2
203.2
228.7
239.7
247.0
255.3
267.2
289.7
311.3
326.1
327.6
337.0
350.1
357.1
360.2
382.2
394.8
439.3
466.6
472.9
497.5
499.0
525.6
547.6
553.0
562.5
577.3
583.9
589.3
605.3
615.2
618.1
632.7
640.0
641.2
659.0
676.8
690.7
716.8
729.3
752.3
812.0
814.0
835.0
840.5
848.5
878.7
883.0
895.3
905.1
911.3
964.8
973.8
998.6
1000.4
1008.1
1008.9
1010.1
1012.4
1016.8
1020.1
1033.1
1048.2
1068.0
1071.4
1081.1
1086.4
1110.4
1125.8
1157.9
1179.3
1182.0
1186.1
1198.3
1221.8
1228.9
1237.4
1247.1
1261.4
1269.3
1279.6
1282.4
1283.9
1287.3
1295.6
1297.0
1302.8
1310.3
1323.0
1334.8
1338.6
1346.1
1356.9
1363.8
1378.6
1392.9
1427.2
1443.9
1469.8
1495.0
1499.9
1509.8
1525.9
1528.3
1554.6
1594.3
1602.0
1620.5
1635.8
1646.6
1675.0
1698.2
1700.2
1709.5
1710.1
1714.3
1819.6
2147.0
2197.9
2455.7
2651.8
2654.6
2667.6
2673.2
2728.9
2741.0
2743.1
2745.2
2748.6
2749.0
2752.5
2754.6
2764.1
2766.1
2766.5
2767.3
2771.4
2772.5
2779.4
2782.1
       
[FR-COORD]
C -2.34269 -1.29182 2.03202
C 0.289317 -1.29182 2.03202
C 1.59606 1.01762 2.03202
N 0.374166 3.26507 2.10043
C -2.18433 3.26941 2.1713
C -3.64339 1.02083 2.11385
N -3.31269 5.60493 2.32644
C -6.30828 1.11097 1.99385
N -8.48884 1.17276 1.8234
C -3.72503 -3.68723 1.8833
C -3.69876 -5.04236 -0.393441
C -5.00551 -7.30039 -0.587705
C -6.33852 -8.19517 1.52936
C -6.37764 -6.86802 3.8078
C -5.06106 -4.59449 3.96427
O -7.51714 -10.4292 1.08451
C 4.36961 1.11739 1.93357
C 5.679 3.08422 3.1188
C 8.301 3.18268 2.99635
C 9.64138 1.31714 1.69074
C 8.33369 -0.650822 0.513439
C 5.70924 -0.74493 0.62172
C 12.4516 1.44413 1.56318
C -9.04328 -11.4321 3.05418
C -4.21258 7.66057 2.44908
C 1.16766 5.24512 -3.03981
C 3.11276 3.7375 -3.96162
C 2.72347 1.34208 -4.95656
C -2.14975 0.959036 -4.13642
C 5.59434 4.79291 -3.84692
C 7.58347 3.4136 -4.77912
C 7.16943 0.97302 -5.80694
C 4.77194 -0.0442196 -5.8778
O -2.41299 2.98048 -3.05342
O -0.0323143 6.88276 -2.3083
O -4.08842 -0.633814 -4.37736
H 1.31808 -3.07383 2.02673
H -0.0525344 0.315017 -4.9662
H -2.67415 -4.29157 -2.02824
H -5.03234 -8.37697 -2.33684
H -7.41302 -7.5606 5.4341
H -5.08128 -3.52226 5.72568
H 4.62813 4.5446 4.13283
H 9.31276 4.71619 3.91816
H 9.36492 -2.10629 -0.505691
H 4.70145 -2.2552 -0.356969
H 13.1043 3.30626 0.909525
H 13.2661 0.0315584 0.279679
H 13.2988 1.12231 3.43628
H -9.80182 -13.1576 2.1832
H -10.5787 -10.1316 3.53606
H -7.89622 -11.9019 4.70882
H 5.89651 6.65202 -3.02375
H 9.49436 4.16099 -4.72753
H 8.78666 -0.0742662 -6.52938
H 4.4384 -1.91769 -6.65278
H -5.71926 -0.0708647 -3.67382

[FR-NORM-COORD]
Vibration 1
-0.00283459 0.000944863 -0.00226767
0.00340151 0.00132281 0.00188973
-0.00453534 -0.00226767 0
0.00188973 0.00188973 -0.0041574
-0.000566918 -0.000377945 -0.00774788
0.000944863 -0.00151178 0.0041574
0.00340151 0.00188973 0.00075589
-0.000566918 0.000377945 -0.0020787
-0.000377945 0.000377945 0.00075589
0.00113384 -0.00132281 0.00075589
-0.000944863 0.00151178 -0.00132281
0.000566918 -0.000188973 0
0.00075589 0.000944863 0
0.000377945 -0.000377945 0.000188973
0.000188973 0.000188973 0.000566918
0.000188973 -0.000944863 0.000188973
0.000188973 0.000566918 -0.00170075
-0.000188973 -0.00113384 -0.000188973
0.000377945 0 -0.000944863
0.000377945 0.000188973 -0.000377945
0.000377945 0.000944863 -0.000944863
0.000188973 0.000377945 0.000566918
0.000188973 0.000188973 -0.000188973
0 0.000188973 -0.000377945
-0.00264562 -0.00245664 -0.00132281
-0.0714316 -0.0292908 0.00736993
-0.0119053 -0.0234326 -0.00736993
-0.0440306 -0.0300466 -0.0075589
0.0428968 -0.00585815 -0.00453534
-0.0328812 -0.0183303 -0.00359048
-0.0075589 -0.0145509 -0.00529123
-0.00982658 0.00907068 0.00642507
-0.0321253 -0.00170075 0.00226767
0.0245664 0.0309915 0.0100155
-0.00188973 0.00850377 0.00472431
0.0349599 0.0187083 0.00151178
-0.00359048 -0.00075589 0.0020787
1.1053 0.443897 0.0693529
-0.0192752 0.0211649 -0.00944863
-0.00377945 0.00585815 -0.00302356
-0.00113384 0.00113384 -0.00170075
-0.0020787 0.00132281 -0.00113384
-0.000944863 -0.0041574 0.00529123
0.000944863 -0.00321253 0.00359048
0.00264562 -0.00396842 0.0100155
0 -0.00944863 0.0156847
0.00321253 -0.000377945 0.00434637
0.00170075 -0.000944863 0.00302356
-0.00113384 -0.00170075 0.00170075
-0.00113384 0.00075589 0.00113384
0.00075589 0.00170075 -0.000944863
-0.000944863 0.000944863 0
-0.0321253 -0.0147399 -0.00151178
-0.0115273 0.00264562 0.00472431
-0.0226767 -0.0134171 0.00151178
0.00340151 -0.0115273 -0.00661404
0.0306136 0.00113384 -0.041385
Vibration 2
-0.00925966 -0.00491329 0.00170075
-0.00907068 -0.0062361 -0.00510226
-0.00793685 -0.00699199 -0.00850377
-0.00642507 -0.0062361 -0.00793685
-0.0062361 -0.00491329 -0.00321253
-0.00774788 -0.0041574 0.00359048
-0.00491329 -0.0041574 -0.00453534
-0.00812582 -0.00245664 0.013795
-0.00888171 -0.00151178 0.0239995
-0.0107714 -0.0041574 0.00736993
0.00264562 -0.0185193 0.0158737
0 -0.0173855 0.020787
-0.0160627 -0.0020787 0.0170075
-0.0289128 0.0115273 0.00888171
-0.0262672 0.0102045 0.00396842
-0.0175745 -0.00245664 0.0224877
-0.00793685 -0.00907068 -0.0122832
-0.00453534 -0.0151178 -0.0062361
-0.00453534 -0.0175745 -0.00907068
-0.00831479 -0.013984 -0.0179524
-0.0119053 -0.00793685 -0.0241885
-0.0119053 -0.00548021 -0.0211649
-0.00831479 -0.0166296 -0.020787
-0.0315584 0.0115273 0.0188973
-0.0041574 -0.00377945 -0.00529123
0.00151178 0.00321253 0.00604712
0.0145509 0.0219208 0.00302356
0.034204 0.0228657 -0.00680301
0.0376055 -0.0221098 -0.00585815
0.0062361 0.0408181 0.00982658
0.0177634 0.0604712 0.00510226
0.0372276 0.062361 -0.00736993
0.0453534 0.0438416 -0.0134171
0.0188973 -0.0268341 -0.00151178
-0.0132281 -0.00850377 0.00812582
0.0510226 -0.0377945 -0.0122832
-0.00982658 -0.00661404 -0.00661404
0.0438416 -0.00151178 -0.00661404
0.0154958 -0.0304246 0.0185193
0.0102045 -0.0281569 0.0272121
-0.0410071 0.0232436 0.00604712
-0.0362827 0.020976 -0.00264562
-0.00170075 -0.0177634 0.000566918
-0.00170075 -0.0222988 -0.00434637
-0.0147399 -0.00491329 -0.0313695
-0.0149288 -0.000377945 -0.0258892
-0.00699199 -0.0151178 -0.0153068
-0.0113384 -0.0130391 -0.0268341
-0.00642507 -0.0239995 -0.0230547
-0.0289128 0.00774788 0.0241885
-0.0323143 0.0170075 0.00151178
-0.0427078 0.0192752 0.0287238
-0.00888171 0.0393063 0.0187083
0.0119053 0.0748331 0.0103935
0.0457314 0.0784236 -0.0117163
0.0604712 0.0449755 -0.0226767
0.0449755 -0.0517785 -0.0156847
Vibration 3
-0.00699199 -0.00472431 -0.0075589
-0.00718096 -0.0062361 -0.00377945
-0.0062361 -0.00680301 -0.00793685
-0.00510226 -0.00604712 -0.0151178
-0.00548021 -0.00453534 -0.0198421
-0.0062361 -0.0041574 -0.0168186
-0.00472431 -0.00396842 -0.0268341
-0.00604712 -0.0041574 -0.0215429
-0.00566918 -0.00359048 -0.0257003
-0.0075589 -0.00529123 0.000377945
-0.0464873 0.0100155 -0.00888171
-0.0434637 0.00736993 0.00113384
-0.00113384 -0.0100155 0.020598
0.0366607 -0.0241885 0.0294797
0.0332592 -0.0213539 0.0192752
-0.00151178 -0.0115273 0.0289128
-0.00604712 -0.00982658 -0.00377945
-0.00491329 -0.0153068 0.00377945
-0.00453534 -0.0200311 0.00907068
-0.00548021 -0.0187083 0.0062361
-0.00699199 -0.0128501 -0.0020787
-0.00718096 -0.00850377 -0.00699199
-0.00491329 -0.0247554 0.0128501
0.0404401 -0.0300466 0.0519675
-0.00377945 -0.00302356 -0.0338261
0.013795 0.0192752 0.0111494
0.0103935 0.0173855 0.00699199
0.00453534 0.0217318 -0.00132281
0.000944863 0.0328812 -0.0132281
0.0130391 0.0105825 0.0119053
0.0100155 0.00850377 0.00869274
0.00434637 0.0130391 0.000188973
0.00170075 0.0196532 -0.00491329
0.00321253 0.0306136 -0.00907068
0.0168186 0.0190862 0.0162516
-0.00340151 0.0393063 -0.0236216
-0.00793685 -0.00680301 0.00188973
0.00151178 0.0287238 -0.00850377
-0.0778567 0.0228657 -0.0228657
-0.0727545 0.0181414 -0.00510226
0.0685971 -0.0372276 0.0440306
0.0629279 -0.0323143 0.0262672
-0.0041574 -0.0162516 0.00585815
-0.00340151 -0.0245664 0.0153068
-0.00774788 -0.0117163 -0.00434637
-0.00850377 -0.00377945 -0.0130391
0.00226767 -0.0177634 0.0404401
-0.00680301 -0.00925966 -0.00529123
-0.0096376 -0.0538572 0.0102045
0.0315584 -0.0281569 0.0561249
0.0438416 -0.0396842 0.0890061
0.0738883 -0.034771 0.027401
0.0173855 0.00718096 0.0181414
0.0119053 0.00340151 0.0122832
0.0020787 0.0111494 -0.00226767
-0.00283459 0.0232436 -0.0115273
-0.00396842 0.0432747 -0.0283459
Vibration 4
-0.0117163 -0.00453534 0.00718096
-0.0115273 -0.00132281 0.00548021
-0.0147399 0.000377945 0.00680301
-0.0177634 -0.00132281 0.00925966
-0.0175745 -0.00434637 0.00982658
-0.0145509 -0.00642507 0.0102045
-0.020976 -0.00604712 0.0111494
-0.0149288 -0.00982658 0.0164406
-0.0154958 -0.0119053 0.0230547
-0.00982658 -0.00566918 0.00434637
-0.0185193 0.00340151 -0.00113384
-0.0190862 0.0041574 -0.00510226
-0.0109604 -0.00434637 -0.00340151
-0.00113384 -0.013984 0.00226767
-0.00075589 -0.0145509 0.00642507
-0.013795 -0.00188973 -0.00831479
-0.0151178 0.00736993 0.00188973
-0.0188973 0.0156847 -0.00736993
-0.0200311 0.027401 -0.0185193
-0.0168186 0.0302356 -0.0194642
-0.0126612 0.020409 -0.00736993
-0.0119053 0.00888171 0.00321253
-0.0185193 0.048377 -0.0366607
-0.00812582 -0.00869274 -0.00736993
-0.0232436 -0.00718096 0.0124722
0.0476211 -0.00869274 0.0170075
0.0372276 -0.0126612 0.000944863
0.0255113 -0.013606 0.00774788
0.0236216 0.00944863 0.0113384
0.0398732 -0.0162516 -0.0224877
0.0300466 -0.0213539 -0.0357158
0.0181414 -0.0228657 -0.0272121
0.0156847 -0.0188973 -0.0062361
0.0304246 0.0134171 0.00529123
0.0580146 -0.00793685 0.0319364
0.0156847 0.0196532 0.00680301
-0.00944863 0 0.00302356
0.0230547 -0.00359048 0.0187083
-0.0245664 0.0100155 -0.0020787
-0.0260782 0.0113384 -0.00925966
0.00566918 -0.020976 0.00377945
0.00661404 -0.0219208 0.0109604
-0.0213539 0.0134171 -0.00642507
-0.0230547 0.034393 -0.0268341
-0.0103935 0.0219208 -0.00736993
-0.00869274 0.00132281 0.0117163
-0.0417629 0.0196532 -0.142674
-0.00982658 -0.013795 0.0372276
-0.00585815 0.160627 -0.0234326
-0.0130391 -0.00396842 -0.0122832
-0.00491329 -0.00888171 0.00359048
-0.00283459 -0.0170075 -0.0134171
0.0495108 -0.0145509 -0.0298577
0.0315584 -0.0238105 -0.0538572
0.0105825 -0.0272121 -0.0377945
0.00604712 -0.0196532 -0.000377945
0.0156847 0.0304246 -0.0020787
Vibration 5
-0.0164406 0.0160627 -0.00188973
-0.0162516 0.013606 -0.0075589
-0.013795 0.0119053 -0.00283459
-0.0103935 0.0132281 0.00359048
-0.0103935 0.0154958 0.00736993
-0.0134171 0.0171965 0.0075589
-0.00774788 0.0166296 0.0124722
-0.013795 0.0211649 0.0190862
-0.0145509 0.0249444 0.0302356
-0.0132281 0.0145509 -0.00434637
0.0109604 0.00491329 0.00132281
0.0279679 -0.00491329 0.00226767
0.020787 -0.00548021 -0.00226767
-0.00869274 0.00718096 -0.0102045
-0.0257003 0.0171965 -0.0113384
0.0455424 -0.0192752 0.00151178
-0.013606 0.00548021 -0.00283459
-0.00718096 -0.0130391 0.0202201
-0.0062361 -0.0241885 0.0264562
-0.0126612 -0.0162516 0.00869274
-0.0198421 0.00359048 -0.0170075
-0.0202201 0.0145509 -0.0224877
-0.0113384 -0.0330702 0.0202201
0.0504557 -0.0292908 0
-0.00472431 0.0175745 0.0171965
0.0130391 -0.00604712 -0.00434637
0.00925966 -0.00793685 -0.0096376
0.0041574 -0.00718096 -0.0096376
0.00548021 -0.00151178 0.00132281
0.0105825 -0.0105825 -0.0162516
0.00661404 -0.0120942 -0.0230547
0.00113384 -0.0105825 -0.0239995
-0.000188973 -0.00831479 -0.0173855
0.00869274 -0.00113384 0.00113384
0.0162516 -0.00529123 -0.00113384
0.00377945 0.000377945 0.00283459
-0.0177634 0.0124722 -0.0145509
0.00396842 -0.00377945 -0.00170075
0.0173855 0.00453534 0.00529123
0.047999 -0.0132281 0.00718096
-0.0175745 0.00869274 -0.0153068
-0.0476211 0.0260782 -0.0170075
-0.00245664 -0.0190862 0.0338261
-0.000944863 -0.0393063 0.0455424
-0.0245664 0.0107714 -0.0321253
-0.0258892 0.0306136 -0.0417629
0.00888171 -0.00396842 0.124533
-0.0221098 0.0294797 -0.0555579
-0.0196532 -0.144942 0.00491329
0.0778567 -0.0444086 0.00604712
0.0308025 -0.0474321 -0.0141729
0.0491329 -0.00472431 0.00793685
0.0151178 -0.0115273 -0.0158737
0.0075589 -0.013984 -0.0279679
-0.00226767 -0.0115273 -0.0302356
-0.00434637 -0.00718096 -0.0179524
0.00472431 0.00226767 0.00340151
Vibration 6
0.0119053 -0.00718096 -0.000944863
0.0117163 -0.00226767 0.00245664
0.00585815 0.00113384 0.00566918
0.00226767 -0.00132281 0.00585815
0.00188973 -0.00642507 -0.00075589
0.00718096 -0.00944863 -0.00585815
-0.00377945 -0.00907068 -0.00132281
0.0075589 -0.0154958 -0.0200311
0.00850377 -0.0211649 -0.0351489
0.0117163 -0.00736993 0.00226767
0.0020787 -0.0075589 0.00245664
-0.00888171 -0.00151178 0.00491329
-0.0102045 0.00510226 0.00680301
0.00340151 0.00321253 0.00831479
0.0143619 -0.00321253 0.00604712
-0.0260782 0.0132281 0.00774788
0.00585815 0.00680301 0.00982658
0.00170075 -0.0164406 0.0527234
0.0020787 -0.0124722 0.0589595
0.00510226 0.0164406 0.0211649
0.00831479 0.0408181 -0.0234326
0.00831479 0.0357158 -0.0283459
0.00529123 0.0196532 0.0298577
-0.0368497 0.027401 0.00661404
-0.00925966 -0.0115273 -0.000566918
0.00434637 -0.00869274 0.00510226
0 -0.00529123 -0.0103935
-0.00680301 0.00245664 -0.0266451
-0.00132281 -0.0041574 0.00188973
0.00151178 -0.00925966 -0.0117163
-0.00377945 -0.0041574 -0.0306136
-0.0107714 0.00491329 -0.0493218
-0.0120942 0.00793685 -0.0468652
0.00604712 -0.0120942 0.0188973
0.00699199 -0.0113384 0.0151178
-0.00245664 -0.00302356 0.00491329
0.0166296 0.000566918 0.00302356
-0.00661404 0.00321253 -0.0179524
0.00188973 -0.0119053 0.000566918
-0.0173855 -0.00113384 0.00472431
0.00491329 0.00661404 0.0107714
0.0243775 -0.0041574 0.00680301
-0.00113384 -0.0381725 0.0803134
-0.000566918 -0.0313695 0.0933525
0.0107714 0.0640617 -0.0540462
0.0096376 0.0559359 -0.0610381
0.00831479 0.0419519 0.0969429
0.0062361 0.0642507 -0.0187083
0.00170075 -0.0476211 0.0200311
-0.0536682 0.0353379 0.00548021
-0.0241885 0.0423299 0.00680301
-0.0419519 0.0153068 0.00680301
0.00699199 -0.0162516 0.00245664
-0.00264562 -0.00680301 -0.0321253
-0.0151178 0.00925966 -0.0653845
-0.0173855 0.0145509 -0.0606602
0.00245664 -0.00850377 0.0211649
Vibration 7
0.00604712 -0.00283459 -0.00472431
0.00585815 0.00075589 -0.0226767
0.00302356 0.00245664 -0.0183303
-0.000377945 0.000566918 -0.0128501
0.000188973 -0.00302356 0.00170075
0.00321253 -0.00510226 0.0149288
-0.00226767 -0.00434637 0.00491329
0.000944863 -0.00944863 0.0593374
-0.00264562 -0.0124722 0.104313
0.00566918 -0.00302356 -0.00359048
-0.0236216 0.0132281 -0.0134171
-0.0330702 0.0188973 -0.0153068
-0.0119053 0.0075589 -0.00680301
0.0217318 -0.0113384 0.00472431
0.0300466 -0.0162516 0.00642507
-0.0281569 0.0170075 -0.0113384
0.00302356 0.00774788 -0.0119053
-0.00548021 0.0113384 -0.00831479
-0.00491329 0.0143619 0.0062361
0.00453534 0.013606 0.0170075
0.0128501 0.0111494 0.0115273
0.0124722 0.00831479 -0.00302356
0.00566918 0.0096376 0.0394953
-0.0122832 0.00982658 -0.00264562
-0.00434637 -0.00529123 0.00661404
-0.00359048 -0.00661404 -0.0171965
0.00113384 -0.00604712 -0.00850377
0.00793685 -0.0113384 0.00132281
0.00321253 -0.00982658 -0.0234326
-0.00132281 -0.000377945 -0.00888171
0.00321253 -0.000566918 0.00113384
0.0102045 -0.00604712 0.0115273
0.0124722 -0.0113384 0.0117163
-0.00529123 -0.00661404 -0.0325033
-0.00793685 -0.0075589 -0.0226767
0.00283459 -0.0075589 -0.0398732
0.00812582 0.00188973 -0.0372276
0.0096376 -0.0141729 -0.0041574
-0.0389284 0.0211649 -0.0196532
-0.0566918 0.0321253 -0.0230547
0.0404401 -0.0215429 0.0122832
0.05518 -0.0302356 0.0151178
-0.0124722 0.0117163 -0.0158737
-0.0120942 0.0168186 0.0100155
0.020409 0.0109604 0.0194642
0.0194642 0.0062361 -0.00718096
0.0234326 0.0525344 0.180847
0.00377945 0.0982658 -0.0591484
-0.00869274 -0.13436 0.0217318
-0.0336371 0.0224877 -0.00907068
0.00170075 0.0156847 0.0264562
0.00359048 -0.0120942 -0.0200311
-0.00661404 0.00396842 -0.0170075
0.00170075 0.00377945 0.00132281
0.013795 -0.00604712 0.0192752
0.0177634 -0.0156847 0.0194642
-0.00321253 -0.00321253 -0.0582036
Vibration 8
-0.000377945 0.00529123 -0.00604712
-0.000377945 0.00321253 -0.0119053
0.00113384 0.00226767 -0.00510226
0.00340151 0.00302356 0.000377945
0.00340151 0.00472431 0.00359048
0.00151178 0.00604712 0.00321253
0.00566918 0.00566918 0.00850377
0.000944863 0.00850377 0.0160627
0 0.0109604 0.0292908
-0.00170075 0.00604712 -0.00585815
-0.00944863 0.00888171 -0.0075589
-0.00812582 0.00793685 -0.00529123
0.00170075 0.00377945 -0.00075589
0.00869274 0.00132281 0.00075589
0.00680301 0.00264562 -0.00188973
0.00321253 0.00245664 0.00151178
0.00151178 -0.000566918 0.000377945
0.00170075 -0.0175745 0.0283459
0.0020787 -0.0221098 0.0377945
0.0020787 -0.00925966 0.0187083
0.00170075 0.00888171 -0.0103935
0.000944863 0.0130391 -0.0188973
0.00188973 -0.00226767 0.020598
0.0187083 -0.00566918 0.00944863
0.00793685 0.00642507 0.0132281
-0.0111494 -0.00699199 -0.0105825
-0.00699199 -0.0041574 -0.00661404
-0.0020787 -0.00283459 -0.0117163
-0.00245664 -0.00944863 -0.0188973
-0.00831479 -0.0020787 0.0020787
-0.00453534 0.00151178 0.00434637
0.000377945 0.00340151 -0.00151178
0.00151178 0.000944863 -0.00925966
-0.00491329 -0.0128501 -0.0132281
-0.0147399 -0.00812582 -0.013984
-0.00245664 -0.00793685 -0.0298577
-0.00132281 0.00264562 -0.0200311
-0.000377945 -0.0062361 -0.0170075
-0.0158737 0.0111494 -0.0105825
-0.013984 0.0100155 -0.00642507
0.0156847 -0.00151178 0.00396842
0.0124722 0.00075589 -0.000566918
0.00151178 -0.027401 0.0421409
0.00321253 -0.0355268 0.0587705
0.000944863 0.0198421 -0.0268341
0.000188973 0.027401 -0.0406291
-0.0232436 -0.0916517 -0.262483
0.027401 -0.186894 0.240184
-0.000188973 0.297443 0.0719986
0.0192752 -0.00699199 0.0115273
0.0173855 -0.0115273 0.020976
0.0304246 -0.00434637 0.00170075
-0.0122832 -0.00359048 0.00680301
-0.00548021 0.00321253 0.0107714
0.00321253 0.00642507 0.000188973
0.00548021 0.0020787 -0.013795
-0.00396842 -0.0096376 -0.0321253
Vibration 9
0.0041574 -0.0103935 -0.00491329
0.00434637 -0.00661404 -0.0160627
0.00132281 -0.00491329 -0.0224877
-0.000944863 -0.00585815 -0.0325033
-0.00113384 -0.00888171 -0.0260782
0.00188973 -0.0115273 -0.00245664
-0.00434637 -0.00944863 -0.0449755
0.000566918 -0.0158737 0.02759
-0.00188973 -0.0196532 0.0566918
0.00642507 -0.0117163 0.000566918
0.0255113 -0.0249444 0.00831479
0.0255113 -0.0249444 0.0096376
0.00472431 -0.0111494 0.00226767
-0.013984 0.00151178 -0.00529123
-0.0126612 0.00075589 -0.0062361
0.00548021 -0.0119053 0.0041574
0.00151178 -0.00359048 -0.0147399
-0.00340151 -0.00888171 -0.000566918
-0.00264562 -0.0119053 0.0156847
0.00283459 -0.00907068 0.0170075
0.00736993 -0.00151178 -0.000188973
0.00661404 0.000944863 -0.0158737
0.00377945 -0.0113384 0.0357158
-0.0292908 0.0111494 -0.0109604
-0.0041574 -0.00793685 -0.0668963
0.00888171 0.02759 -0.00302356
0.00170075 0.0183303 -0.00340151
-0.00661404 0.0105825 0.0187083
-0.00699199 0.0281569 0.027401
0.00377945 0.0156847 -0.0251334
-0.00283459 0.00453534 -0.0226767
-0.0113384 -0.00396842 0.00075589
-0.0132281 -0.00075589 0.020976
-0.00793685 0.0453534 -0.00491329
0.0162516 0.0326923 -0.00283459
-0.00302356 0.0181414 0.0616051
0.00699199 -0.00510226 -0.0173855
-0.00793685 0.0168186 0.0336371
0.0383614 -0.0328812 0.0128501
0.0402512 -0.0349599 0.0154958
-0.0294797 0.0117163 -0.0107714
-0.0272121 0.0103935 -0.0120942
-0.00774788 -0.0113384 -0.00151178
-0.00604712 -0.0166296 0.027401
0.0115273 0.00188973 -0.000944863
0.0100155 0.00680301 -0.0281569
0.00472431 -0.0328812 -0.0258892
0.0160627 -0.05518 0.0920297
-0.00925966 0.0572587 0.0531013
-0.0270231 0.0096376 -0.0096376
-0.0285349 0.0238105 -0.0423299
-0.0559359 0.0160627 0.00888171
0.0105825 0.0224877 -0.0432747
-0.00151178 0.0020787 -0.0387394
-0.0164406 -0.0126612 0.0020787
-0.0200311 -0.00680301 0.0385504
-0.00302356 0.0247554 0.0557469
Vibration 10
0 -0.00529123 -0.0211649
-0.000188973 -0.00510226 -0.0224877
-0.000188973 -0.00491329 -0.0041574
-0.000377945 -0.00566918 0.0192752
0 -0.0062361 0.0179524
0 -0.00529123 -0.0107714
0 -0.00831479 0.0493218
0.00075589 -0.00434637 -0.0268341
0.0020787 -0.00283459 -0.0434637
-0.0020787 -0.00434637 -0.0175745
-0.00944863 -0.0119053 -0.0126612
-0.0124722 -0.0115273 -0.00132281
-0.00774788 -0.00321253 0.00510226
-0.000566918 0.00491329 0.00075589
0.00188973 0.00377945 -0.0109604
-0.0111494 -0.00377945 0.0170075
-0.000377945 -0.00321253 -0.00396842
-0.000566918 -0.0156847 0.0168186
-0.00075589 -0.0134171 0.0168186
-0.000566918 0.00170075 -0.00472431
-0.000377945 0.013795 -0.0253223
-0.000377945 0.0115273 -0.0247554
-0.000944863 0.00491329 -0.00604712
-0.00302356 0.00321253 0.0268341
-0.00170075 -0.0107714 0.0801244
-0.00321253 0.0132281 -0.0281569
0.000188973 0.00736993 -0.0117163
0.0134171 -0.0179524 0.0442196
0.00699199 0.000944863 0.00736993
-0.00680301 0.0283459 -0.0489439
-0.00075589 0.020598 -0.0245664
0.0128501 -0.0075589 0.0368497
0.0198421 -0.0262672 0.0708647
-0.00170075 0.0306136 -0.0500777
0.00151178 0.0196532 -0.034204
0.00661404 -0.00170075 0.0279679
0.000377945 -0.00491329 -0.0355268
0.0153068 -0.0247554 0.0495108
-0.0132281 -0.0181414 -0.0179524
-0.0185193 -0.0171965 0.00226767
0.00283459 0.0117163 0.00585815
0.00736993 0.0100155 -0.0145509
-0.00075589 -0.0264562 0.0323143
-0.000944863 -0.0230547 0.0330702
-0.000566918 0.0257003 -0.0421409
-0.000566918 0.0222988 -0.0417629
-0.00302356 0.0124722 0.0130391
-0.00113384 0.0192752 -0.0219208
0.00132281 -0.0143619 -0.0103935
-0.0062361 0 0.0362827
-0.00132281 0.00472431 0.0281569
0.00359048 0.0096376 0.0239995
-0.0164406 0.0508336 -0.0958091
-0.0062361 0.0364717 -0.0521564
0.0175745 -0.0134171 0.0557469
0.0298577 -0.0472432 0.117163
0.000377945 0.0194642 -0.00321253
Vibration 11
-0.00132281 -0.00434637 -0.0289128
-0.00113384 -0.00472431 -0.0396842
-0.000188973 -0.00510226 -0.0243775
-0.00075589 -0.00566918 -0.00377945
-0.000188973 -0.00566918 0.00377945
-0.000944863 -0.00491329 -0.0105825
0.00075589 -0.00718096 0.0355268
-0.00113384 -0.00340151 -0.00510226
-0.00113384 -0.0020787 -0.00321253
-0.00340151 -0.00359048 -0.0221098
0.00113384 -0.0213539 -0.0111494
0.00113384 -0.0230547 0.00434637
-0.00396842 -0.00585815 0.00831479
-0.0111494 0.013795 -0.00321253
-0.0107714 0.0141729 -0.0185193
-0.00132281 -0.0107714 0.0257003
0 -0.00113384 -0.0162516
-0.0113384 0.0202201 -0.0381725
-0.0107714 0.0230547 -0.0192752
0.00264562 0.00302356 0.0230547
0.0145509 -0.0160627 0.0419519
0.013606 -0.0177634 0.0215429
0.00377945 0.00170075 0.0504557
-0.00396842 0.00566918 0.0323143
-0.0020787 -0.0103935 0.068975
0.00604712 0.00680301 -0.00718096
0.00302356 0.00585815 -0.0119053
-0.00510226 0.0166296 -0.034771
0.000944863 0.0122832 -0.00510226
0.00774788 -0.00736993 0.00642507
0.0041574 -0.00869274 0.00113384
-0.0041574 0.00340151 -0.0239995
-0.00888171 0.0158737 -0.0423299
0.0102045 0.00359048 0.013795
0.00888171 0.00812582 -0.00491329
0.00113384 0.0103935 0.00661404
-0.00264562 -0.00529123 -0.055369
-0.00718096 0.0213539 -0.0325033
0.0041574 -0.0334482 -0.0147399
0.00529123 -0.0372276 0.0130391
-0.0166296 0.0281569 -0.000566918
-0.0154958 0.0289128 -0.02759
-0.0211649 0.034204 -0.0676522
-0.020598 0.0396842 -0.0359048
0.0249444 -0.0308025 0.0735103
0.0245664 -0.034582 0.0366607
0.0107714 -0.00699199 0.0325033
0.0173855 -0.0154958 0.0780457
-0.0158737 0.0270231 0.0638727
0.00113384 -0.0041574 0.0472432
-0.00736993 0.0075589 0.0160627
-0.00699199 0.0236216 0.0394953
0.013795 -0.0164406 0.0247554
0.00793685 -0.0188973 0.0156847
-0.00680301 0.0020787 -0.0279679
-0.0154958 0.0249444 -0.0614161
0.00850377 0.00283459 0.0298577
Vibration 12
0.000944863 -0.00226767 -0.0192752
0.00113384 -0.000944863 -0.0283459
-0.000566918 -0.000377945 -0.0200311
-0.00132281 -0.000944863 -0.0117163
-0.00113384 -0.00245664 -0.00793685
0 -0.00321253 -0.00812582
-0.00245664 -0.00340151 -0.000566918
-0.000566918 -0.00434637 0.00510226
-0.00151178 -0.00510226 0.0170075
0.00075589 -0.00226767 -0.013606
0.00944863 -0.0171965 -0.00453534
0.0107714 -0.0190862 0.00585815
0.00188973 -0.00453534 0.0062361
-0.00925966 0.0119053 -0.00340151
-0.00944863 0.0124722 -0.0134171
0.00529123 -0.00888171 0.0185193
-0.000566918 0.00245664 -0.0179524
-0.00283459 -0.0120942 0.00850377
-0.00340151 -0.00453534 0.00510226
-0.00170075 0.0179524 -0.0253223
0.000566918 0.0296687 -0.0476211
0.000944863 0.0217318 -0.0434637
-0.00264562 0.0300466 -0.0349599
-0.0102045 0.0105825 0.0166296
-0.00453534 -0.00491329 0.00699199
0.00434637 0.00321253 0.00585815
0.00453534 -0.00699199 0.0224877
-0.00453534 0.0062361 -0.00604712
-0.00529123 0.0162516 -0.0111494
0.0130391 -0.0325033 0.068786
0.0126612 -0.0417629 0.0812582
0.00321253 -0.0268341 0.0495108
-0.00548021 -0.00340151 0.00661404
0.00151178 0.00585815 0.00982658
0.0041574 0.0102045 -0.0103935
-0.00566918 0.0170075 -0.0119053
0.00245664 -0.000188973 -0.0389284
-0.00888171 0.0228657 -0.0279679
0.0141729 -0.0264562 -0.00566918
0.0185193 -0.0313695 0.0132281
-0.0173855 0.0239995 -0.00340151
-0.0171965 0.0247554 -0.020976
-0.00434637 -0.0285349 0.0306136
-0.00491329 -0.0156847 0.0253223
0.00188973 0.0457314 -0.0693529
0.00226767 0.0323143 -0.0610381
-0.0120942 0.0427078 -0.00831479
-0.00283459 0.0531013 -0.0604712
0.0062361 0.00359048 -0.0436527
-0.00548021 0.00340151 0.0268341
-0.0124722 0.0166296 -0.00661404
-0.0226767 0.0245664 0.0292908
0.0198421 -0.0445975 0.0937304
0.0190862 -0.0610381 0.116407
0.00302356 -0.034393 0.0599043
-0.0128501 0.00793685 -0.0175745
-0.00132281 0.00982658 0.00396842
Vibration 13
-0.000377945 -0.00075589 -0.0224877
0.000377945 -0.00869274 -0.0247554
0.00718096 -0.0132281 -0.0134171
0.0117163 -0.0102045 -0.0111494
0.0119053 -0.0020787 -0.0105825
0.00585815 0.00226767 -0.013984
0.0213539 0.0020787 -0.0096376
0.00566918 0.0132281 -0.00491329
0.00510226 0.0255113 0.00718096
-0.00736993 0.00340151 -0.0196532
0.00472431 -0.0141729 -0.00888171
0.00736993 -0.0170075 0.00302356
-0.00377945 -0.000377945 0.00283459
-0.0238105 0.0222988 -0.0105825
-0.0249444 0.0234326 -0.0219208
0.0062361 -0.00869274 0.0183303
0.0075589 -0.0107714 -0.00245664
-0.00321253 -0.00510226 0.000566918
-0.00377945 0.00907068 0.00359048
0.00718096 0.0164406 0.00396842
0.0187083 0.0075589 0.0062361
0.0188973 -0.00642507 0.00302356
0.0062361 0.0349599 0.00283459
0.00793685 -0.000188973 0.0243775
0.0355268 0.00888171 -0.0158737
-0.000377945 -0.0253223 0.0634948
-0.00548021 -0.0132281 0.0321253
-0.00283459 -0.0188973 0.0447865
-0.0156847 -0.00302356 -0.0164406
-0.0113384 0.00472431 -0.00793685
-0.0147399 0.0147399 -0.0300466
-0.0117163 0.00680301 -0.0120942
-0.00566918 -0.00982658 0.0251334
-0.0323143 0.00718096 -0.0402512
0.00453534 -0.0406291 0.10488
-0.0158737 0.0020787 -0.0498888
-0.00510226 -0.0119053 -0.0328812
0.0020787 -0.0173855 0.034771
0.0111494 -0.0251334 -0.00982658
0.0187083 -0.0321253 0.0120942
-0.0374166 0.0383614 -0.0124722
-0.0387394 0.0398732 -0.0321253
-0.0113384 -0.0103935 -0.000188973
-0.0128501 0.0143619 0.00453534
0.02759 0.0119053 0.00907068
0.027779 -0.0128501 0.00396842
-0.00510226 0.0461093 0.0232436
0.0134171 0.0542351 -0.013795
0.0096376 0.0188973 -0.00132281
0.0255113 -0.0160627 0.0406291
-0.00453534 -0.0075589 0.00434637
0.00585815 0.027401 0.0336371
-0.0128501 0.0109604 -0.0211649
-0.0194642 0.0291018 -0.0616051
-0.0143619 0.0145509 -0.0291018
-0.00359048 -0.0156847 0.0379835
-0.0300466 0.0126612 -0.0925966
Vibration 14
-0.00453534 -0.000944863 -0.0217318
-0.00396842 -0.00888171 -0.027401
0.00283459 -0.0128501 -0.0162516
0.00888171 -0.00925966 -0.0132281
0.00925966 -0.00132281 -0.0153068
0.00245664 0.00283459 -0.0113384
0.0187083 0.00377945 -0.0196532
0.00245664 0.013606 0
0.0020787 0.0243775 0.00869274
-0.0145509 0.00453534 -0.0232436
-0.0298577 0.00774788 -0.0253223
-0.0396842 0.0132281 -0.0238105
-0.0289128 0.0113384 -0.0177634
-0.0160627 0.00944863 -0.0164406
-0.0103935 0.0062361 -0.0198421
-0.0357158 0.0147399 -0.0160627
0.00340151 -0.0111494 -0.00510226
-0.00774788 -0.00888171 0.0041574
-0.00831479 0.00566918 0.00774788
0.00264562 0.0175745 0.0020787
0.0145509 0.0122832 -0.0020787
0.0145509 -0.00264562 -0.00510226
0.00170075 0.0374166 0.000566918
0.0561249 -0.0391173 0.02759
0.0336371 0.0105825 -0.027779
-0.00340151 -0.00113384 0.00132281
-0.00132281 0 0.00491329
0.000377945 -0.00264562 0.0103935
0.00907068 -0.0258892 0.054991
-0.00283459 0.00377945 0.000566918
-0.0020787 0.00491329 0.000566918
0 0.00226767 0.00566918
0.00151178 -0.00151178 0.0107714
0.0143619 -0.0340151 0.0714316
-0.0109604 -0.000377945 -0.0126612
0.0107714 -0.0296687 0.0659514
-0.00925966 -0.0117163 -0.0379835
0.000566918 -0.013606 0.027779
-0.0306136 0.00359048 -0.027779
-0.0521564 0.0170075 -0.0258892
-0.0117163 0.0111494 -0.0128501
-0.00132281 0.00491329 -0.0187083
-0.0164406 -0.0171965 0.00736993
-0.0175745 0.00812582 0.013795
0.0234326 0.0196532 -0.00359048
0.0236216 -0.00642507 -0.00831479
-0.0109604 0.048377 0.0190862
0.00982658 0.0559359 -0.0147399
0.00548021 0.0238105 -0.00340151
0.0661404 -0.048566 0.0376055
0.0427078 -0.0788016 0.0914627
0.123021 -0.0279679 -0.0156847
-0.00453534 0.00548021 -0.00264562
-0.00302356 0.0075589 -0.00321253
0.00075589 0.00340151 0.00566918
0.00340151 -0.00377945 0.0153068
0.0158737 -0.0383614 0.0852266
Vibration 15
-0.00642507 -0.0126612 0.0171965
-0.00585815 -0.0238105 0.0253223
0.00359048 -0.0292908 0.0302356
0.0117163 -0.0243775 0.0226767
0.0122832 -0.0132281 0.0126612
0.00302356 -0.00718096 0.0124722
0.0247554 -0.00642507 -0.000944863
0.00359048 0.00661404 0.0134171
0.00377945 0.020598 0.0171965
-0.0158737 -0.00718096 0.0113384
-0.00302356 -0.0105825 0.0134171
-0.00113384 -0.0111494 0.00888171
-0.0141729 -0.00850377 0.0020787
-0.0349599 -0.00075589 -0.00302356
-0.0353379 -0.000566918 0.00188973
-0.00453534 -0.0132281 -0.000377945
0.00377945 -0.0283459 0.0376055
-0.00491329 -0.0219208 0.0372276
-0.00680301 0.00151178 0.020976
0.000377945 0.0181414 0.00453534
0.0103935 0.00340151 0.0179524
0.0117163 -0.020598 0.0351489
-0.00264562 0.0540462 -0.0289128
0.00888171 -0.0287238 0.0020787
0.0455424 0.00377945 -0.0171965
-0.00396842 0.0141729 -0.0355268
-0.00302356 0.00925966 -0.0253223
-0.00340151 0.0132281 -0.034582
-0.00151178 0.0196532 -0.0315584
-0.000566918 0.00170075 -0.0062361