[Molden Format]
[FREQ]
-11.3
12.2
17.6
25.0
25.6
29.1
33.9
42.0
48.1
52.9
74.0
78.9
89.2
94.8
124.4
133.6
135.9
143.6
158.6
170.7
187.1
192.5
215.9
234.8
247.0
254.7
261.8
285.1
305.0
323.8
333.2
341.6
348.0
356.7
369.3
377.5
389.6
425.9
436.7
444.1
460.8
479.0
508.2
522.4
525.5
532.1
542.6
554.1
562.8
597.6
604.4
608.4
612.2
622.5
631.7
652.5
663.3
667.8
679.3
702.7
722.8
735.8
744.3
758.1
785.2
804.9
835.9
847.0
865.6
882.1
882.9
888.2
897.1
900.7
943.5
954.2
963.1
979.0
982.9
1008.9
1009.5
1016.7
1017.8
1023.0
1030.6
1032.0
1047.7
1059.4
1070.4
1081.4
1089.7
1103.1
1112.1
1126.4
1146.3
1163.3
1177.5
1178.6
1183.5
1188.5
1210.5
1224.8
1249.3
1254.9
1262.9
1267.4
1270.5
1281.2
1286.5
1290.1
1295.4
1299.6
1318.1
1323.8
1328.3
1337.3
1348.4
1349.6
1358.7
1372.6
1377.7
1389.7
1420.3
1424.2
1448.5
1479.1
1488.7
1520.5
1525.1
1534.3
1583.7
1585.2
1647.7
1698.0
1698.9
1703.4
1707.5
1736.2
1790.5
1850.2
1860.7
1911.3
2005.6
2450.8
2630.3
2652.3
2652.5
2654.5
2665.7
2672.8
2741.1
2741.8
2742.0
2744.7
2745.5
2745.6
2753.1
2760.6
2761.1
2762.7
2764.4
2766.5
2769.9
2779.2
2787.3
       
[FR-COORD]
C -2.62218 -3.04775 0.350166
C 0.0587705 -3.04775 0.350166
C 1.36325 -0.805779 0.350166
N 0.0880612 1.4704 0.426133
C -2.59119 1.61534 -0.0020787
C -3.91211 -0.793118 0.136438
N -3.65057 3.76282 -0.319742
C -6.57908 -0.70638 -0.0270231
N -8.76228 -0.642696 -0.16913
C -3.94329 -5.47057 0.562005
C -3.41757 -7.40508 -1.17239
C -4.62208 -9.71867 -0.973209
C -6.37405 -10.0849 0.992106
C -6.93246 -8.17533 2.72328
C -5.70055 -5.86306 2.49066
O -7.40943 -12.4291 0.970374
C 4.14568 -0.693151 0.31634
C 5.50402 -0.712994 2.57513
C 8.12922 -0.584681 2.51334
C 9.39817 -0.433881 0.201256
C 8.02056 -0.410826 -2.05432
C 5.39762 -0.555579 -2.00235
C 12.2069 -0.256436 0.135304
C -9.19805 -13.0064 2.88996
C -3.93517 6.12441 -1.10814
C 2.07662 5.39422 2.94174
C 3.36107 7.13598 1.08584
C 2.7161 5.29709 -0.95469
C 1.46756 3.70802 0.622287
C 4.35393 9.40554 0.655924
C 4.75776 10.0804 -1.99725
C 4.28533 8.48392 -3.91665
C 3.48428 5.751 -3.59275
O 1.60948 5.12626 -5.34774
O 1.72967 5.28065 5.14327
O -2.93928 6.40409 -3.4924
H 1.07469 -4.836 0.383614
H -0.114139 5.4872 -4.67764
H -2.06963 -7.07192 -2.6991
H -4.25132 -11.2425 -2.29904
H -8.3095 -8.45123 4.21617
H -6.11723 -4.34694 3.82953
H 4.51153 -0.812204 4.38076
H 9.19541 -0.603578 4.27135
H 9.00322 -0.280624 -3.85617
H 4.32086 -0.552745 -3.76301
H 12.8142 1.73326 0.0319364
H 13.023 -1.2287 -1.50819
H 13.0994 -1.07488 1.82188
H -9.64233 -14.9944 2.48612
H -10.8886 -11.8312 2.68889
H -8.36147 -12.8222 4.77118
H 4.80822 10.7762 2.11555
H 5.39158 12.0083 -2.34912
H 4.46051 9.04404 -5.89084
H 5.10623 4.47601 -4.13756
H -3.56383 7.85238 -4.41497

[FR-NORM-COORD]
Vibration 1
0.00132281 0.00264562 -0.00226767
0.00113384 0.00245664 -0.00283459
0.00151178 0.00245664 -0.00302356
0.0020787 0.00264562 -0.0041574
0.00151178 0.00264562 -0.00113384
0.00151178 0.00283459 -0.00132281
0.00113384 0.00302356 0.00226767
0.00132281 0.00283459 0.000377945
0.00132281 0.00302356 0.00188973
0.00170075 0.00245664 -0.0020787
0.00075589 0.00302356 -0.00283459
0.00226767 0.00226767 -0.00188973
0.00472431 0.00113384 0
0.00510226 0.00075589 0.000566918
0.00359048 0.00151178 -0.000566918
0.0062361 0.000377945 0.00113384
0.00170075 -0.000566918 0.000188973
-0.00226767 -0.0113384 0.00340151
-0.00245664 -0.0224877 0.00812582
0.00302356 -0.0224877 0.0100155
0.00774788 -0.00793685 0.00850377
0.0062361 0.00302356 0.00377945
0.00434637 -0.0351489 0.0315584
0.0096376 -0.00132281 0.00377945
-0.00434637 0.00302356 0.00491329
0.00736993 0.000566918 -0.00548021
-0.000188973 0.0041574 -0.00736993
-0.00377945 0.00548021 -0.0075589
0.00226767 0.00264562 -0.00566918
-0.00604712 0.00661404 -0.00793685
-0.0156847 0.0103935 -0.00850377
-0.0185193 0.0115273 -0.00869274
-0.0115273 0.00944863 -0.00925966
-0.0143619 0.00642507 -0.00491329
0.013984 -0.00226767 -0.00472431
-0.0113384 0.0062361 0.00245664
0.00113384 0.00245664 -0.00283459
-0.0134171 0.00642507 -0.00226767
-0.000944863 0.00377945 -0.0041574
0.00170075 0.00264562 -0.00245664
0.00680301 -0.000188973 0.00188973
0.0041574 0.00113384 0
-0.00642507 -0.0122832 0.000944863
-0.00396842 -0.0313695 0.00888171
0.0096376 -0.00604712 0.0096376
0.00982658 0.0130391 0.00151178
0.0198421 -0.0170075 0.463739
-0.000944863 0.316529 -0.177823
-0.00396842 -0.409315 -0.144564
0.0109604 -0.00170075 0.00453534
0.00812582 -0.00283459 0.00604712
0.0119053 -0.000188973 0.00264562
-0.0041574 0.00585815 -0.00793685
-0.020787 0.0120942 -0.00831479
-0.0258892 0.0141729 -0.00869274
-0.0100155 0.013795 -0.0143619
-0.0151178 0.00642507 0.00548021
Vibration 2
0.00472431 0.000188973 0.00907068
0.00472431 -0.000188973 0.0158737
0.00529123 -0.000566918 0.0147399
0.00642507 0.000188973 0.00888171
0.00585815 0.000944863 0.0147399
0.00566918 0.00075589 0.00888171
0.00472431 0.0020787 0.0258892
0.00604712 0.00113384 0.0020787
0.00642507 0.00188973 -0.00359048
0.00340151 0.000188973 0.00113384
0.00869274 0.00321253 -0.00075589
0.00604712 0.00377945 -0.0100155
-0.0020787 0.00132281 -0.0177634
-0.00680301 -0.00188973 -0.0158737
-0.00396842 -0.00245664 -0.0062361
-0.00453534 0.00264562 -0.0272121
0.00548021 -0.00170075 0.0196532
0.000377945 0.0096376 0.0224877
0.00075589 0.00869274 0.027779
0.00566918 -0.00321253 0.0300466
0.0105825 -0.0145509 0.0266451
0.0105825 -0.013795 0.0215429
0.00585815 -0.00434637 0.0325033
-0.0147399 0.000944863 -0.0370386
-0.0103935 0.00283459 0.0353379
0.0366607 -0.000944863 -0.0119053
0.0162516 -0.00113384 -0.0262672
-0.00699199 -0.00113384 -0.0190862
0.0096376 -0.000377945 -0.00510226
0.0119053 -0.00132281 -0.0374166
-0.0179524 -0.00132281 -0.0419519
-0.0389284 -0.00151178 -0.0364717
-0.034393 -0.00188973 -0.0272121
-0.0510226 -0.00434637 -0.00812582
0.061794 -0.00113384 -0.00793685
-0.0309915 0.0132281 0.0279679
0.0041574 -0.000377945 0.020976
-0.0444086 0.00302356 0.00510226
0.0149288 0.00510226 0.00529123
0.0100155 0.0062361 -0.0117163
-0.0126612 -0.00396842 -0.0215429
-0.00774788 -0.00491329 -0.00453534
-0.00340151 0.0192752 0.020976
-0.00340151 0.0175745 0.0304246
0.0149288 -0.0239995 0.0285349
0.0143619 -0.0226767 0.0192752
0.00548021 -0.00869274 -0.0525344
0.0100155 -0.075589 0.0765339
0.0020787 0.0695419 0.0701088
-0.0166296 0.00283459 -0.0442196
-0.0115273 0.00472431 -0.0417629
-0.0230547 -0.00548021 -0.0326923
0.0285349 -0.00151178 -0.0423299
-0.0224877 -0.00113384 -0.0491329
-0.0614161 -0.00170075 -0.0385504
-0.0389284 -0.00113384 -0.0428968
-0.0400622 0.0158737 0.0387394
Vibration 3
-0.00359048 0.00170075 0.0120942
-0.00340151 0.00264562 0.0075589
-0.00434637 0.00302356 0.0102045
-0.00548021 0.00264562 0.0166296
-0.00566918 0.00188973 0.0179524
-0.00491329 0.00170075 0.0213539
-0.00566918 0.00132281 0.0132281
-0.00566918 0.00132281 0.0325033
-0.00642507 0.000944863 0.0428968
-0.0020787 0.000188973 0.00340151
-0.00774788 0.0115273 -0.0111494
-0.00718096 0.0103935 -0.0228657
-0.00113384 -0.00245664 -0.0196532
0.00510226 -0.0141729 -0.00472431
0.00453534 -0.0124722 0.00680301
-0.0020787 -0.00188973 -0.0326923
-0.00453534 0.00585815 0.00472431
-0.00075589 0.0472432 0.00302356
-0.00151178 0.0544241 -0.00359048
-0.00548021 0.0198421 -0.00831479
-0.00907068 -0.0224877 -0.0062361
-0.00869274 -0.0294797 0.000566918
-0.0062361 0.0296687 -0.0117163
0.00302356 -0.0143619 -0.0317474
0.00491329 0 0.00396842
-0.0109604 0.0175745 0.000188973
0.0020787 0.00113384 -0.0062361
0.00453534 -0.0102045 0.00359048
-0.00491329 0.00283459 0.00944863
0.013984 -0.00604712 -0.0175745
0.0292908 -0.0264562 -0.020409
0.0294797 -0.0368497 -0.0119053
0.0122832 -0.0300466 0.00264562
0.00944863 -0.0270231 0.00396842
-0.0213539 0.034204 -0.000566918
0.0143619 -0.0117163 0.00642507
-0.00283459 0.00283459 0.00226767
0.0109604 -0.0217318 0.00472431
-0.0124722 0.0217318 -0.0132281
-0.0117163 0.0192752 -0.034204
0.0102045 -0.0241885 -0.00188973
0.00907068 -0.0215429 0.0181414
0.00245664 0.0738883 0.0062361
0.00188973 0.0874943 -0.00529123
-0.0128501 -0.0496998 -0.0102045
-0.0115273 -0.061794 0.0020787
-0.0124722 0.0359048 0.0695419
-0.0062361 0.100344 -0.0531013
-0.00075589 -0.0377945 -0.0470542
-0.000188973 -0.0107714 -0.0453534
0.00359048 -0.0111494 -0.0177634
0.00888171 -0.0291018 -0.0328812
0.013606 0.0020787 -0.0251334
0.041385 -0.0323143 -0.0306136
0.041574 -0.0510226 -0.0147399
0.00453534 -0.0436527 0.0117163
0.0221098 -0.0128501 -0.00075589
Vibration 4
0.00132281 0.00718096 0.00774788
0.00113384 0.00661404 0.00226767
0.00188973 0.0062361 0.00359048
0.00264562 0.00642507 0.0041574
0.00188973 0.0062361 0.00604712
0.000944863 0.0075589 0.0160627
0.00321253 0.00548021 -0.00340151
-0.000188973 0.00831479 0.034582
-0.00132281 0.00869274 0.0519675
0.00188973 0.0062361 0.00226767
-0.0177634 0.0221098 -0.0213539
-0.0170075 0.020976 -0.0298577
0.0041574 0.00396842 -0.013984
0.0241885 -0.0117163 0.0096376
0.0224877 -0.00982658 0.0173855
0.00245664 0.00491329 -0.0247554
0.0020787 0.000944863 0.00510226
0.000944863 -0.0336371 0.00529123
0.00188973 -0.0504557 0.00812582
0.00377945 -0.0321253 0.0105825
0.00472431 0.00585815 0.0102045
0.00377945 0.0222988 0.00718096
0.00529123 -0.054991 0.0102045
0.0260782 -0.0134171 -0.00850377
0.0041574 0 -0.020409
-0.0126612 0.0190862 -0.00302356
-0.0147399 0.0173855 -0.0062361
0.000188973 0.00604712 -0.00075589
0.000566918 0.00793685 0.00151178
-0.0287238 0.0222988 -0.0132281
-0.0270231 0.0143619 -0.0149288
-0.0124722 0.00359048 -0.0096376
0.00453534 -0.000188973 -0.000566918
0.0128501 -0.020598 -0.0020787
-0.0188973 0.0264562 -0.00377945
0.00491329 -0.0187083 -0.0226767
0.000377945 0.00604712 -0.00264562
0.00944863 -0.020598 -0.0107714
-0.0336371 0.0355268 -0.0325033
-0.0325033 0.0330702 -0.047999
0.0404401 -0.0249444 0.0221098
0.0374166 -0.0215429 0.0351489
-0.000566918 -0.0487549 0.00377945
0.00075589 -0.0791795 0.00850377
0.00661404 0.0215429 0.0122832
0.00434637 0.0504557 0.00680301
0.020787 -0.0634948 -0.061794
-0.00151178 -0.12132 0.0457314
-0.00188973 -0.000377945 0.0402512
0.0200311 -0.00925966 -0.0228657
0.0239995 -0.0105825 0.0243775
0.0495108 -0.0326923 -0.0170075
-0.0417629 0.0313695 -0.0177634
-0.0387394 0.0170075 -0.0211649
-0.0115273 -0.00302356 -0.0115273
0.0141729 0.00812582 0.00907068
0.00453534 -0.0262672 -0.034393
Vibration 5
-0.013795 0.00661404 -0.0190862
-0.013795 0.00340151 -0.020409
-0.0117163 0.0020787 -0.013606
-0.00944863 0.00340151 -0.0117163
-0.0096376 0.00718096 -0.00982658
-0.0119053 0.00793685 -0.0134171
-0.0075589 0.00869274 -0.00453534
-0.0122832 0.00982658 -0.00736993
-0.0124722 0.0107714 -0.00226767
-0.0128501 0.00604712 -0.0179524
-0.0294797 0.013606 -0.0313695
-0.0181414 0.00850377 -0.0217318
0.0113384 -0.0041574 0.0020787
0.0234326 -0.0096376 0.0119053
0.0107714 -0.00377945 0.00151178
0.0251334 -0.0105825 0.013606
-0.0115273 -0.00113384 -0.00359048
-0.0219208 0.0141729 0.00283459
-0.0215429 0.0111494 0.0143619
-0.0107714 -0.0075589 0.0190862
-0.000377945 -0.0228657 0.0124722
-0.00075589 -0.0196532 0.00113384
-0.0103935 -0.0111494 0.0302356
0.0697309 -0.0302356 0.0491329
-0.00302356 0.013984 0.00944863
0.00661404 -0.00907068 -0.00491329
0.0126612 -0.0102045 -0.00188973
-0.000944863 -0.000566918 -0.00642507
-0.00472431 0.000188973 -0.00850377
0.0283459 -0.0160627 0.00396842
0.0304246 -0.0109604 0.00566918
0.0170075 -0.00188973 0.00132281
-0.00264562 0.00283459 -0.0062361
-0.0103935 0.0238105 -0.00548021
0.00925966 -0.0134171 -0.00472431
-0.00245664 0.0272121 0.0115273
-0.0160627 0.0020787 -0.0243775
-0.00699199 0.0253223 0.00188973
-0.0504557 0.0232436 -0.0478101
-0.0300466 0.013606 -0.0308025
0.0427078 -0.0185193 0.0279679
0.020598 -0.00793685 0.00888171
-0.0306136 0.0285349 -0.000944863
-0.0298577 0.0232436 0.0194642
0.00831479 -0.0374166 0.0162516
0.0075589 -0.0317474 -0.00377945
-0.00793685 -0.013795 -0.00699199
-0.00340151 -0.0449755 0.0534792
-0.0192752 0.0221098 0.0508336
0.082959 -0.0349599 0.0574477
0.0532903 -0.048188 0.08277
0.10488 -0.0217318 0.0326923
0.0402512 -0.0238105 0.00774788
0.0440306 -0.0145509 0.0107714
0.0188973 0.00283459 0.00283459
-0.0132281 -0.00718096 -0.013795
0.00075589 0.034393 0.020787
Vibration 6
0.00774788 -0.0107714 -0.00510226
0.0075589 -0.0119053 -0.0117163
0.00718096 -0.0117163 -0.0111494
0.00661404 -0.0117163 -0.0122832
0.0062361 -0.0113384 -0.00850377
0.00680301 -0.0111494 -0.00151178
0.00585815 -0.0120942 -0.0102045
0.00585815 -0.0124722 0.0122832
0.00510226 -0.0141729 0.0247554
0.00302356 -0.00812582 0
-0.0381725 0.00340151 -0.0243775
-0.0527234 0.0105825 -0.0249444
-0.0243775 0.00699199 -0.000377945
0.020598 -0.00510226 0.027401
0.0336371 -0.0120942 0.0272121
-0.0464873 0.0168186 -0.00680301
0.00718096 -0.00472431 -0.00434637
-0.000188973 -0.013795 0.000188973
-0.00113384 0.00944863 0.0103935
0.00529123 0.041574 0.0160627
0.0132281 0.0445975 0.0115273
0.0141729 0.0211649 0.00113384
0.00359048 0.0738883 0.0283459
-0.0238105 0.0160627 0.0141729
0.00188973 -0.0128501 -0.0111494
0.0119053 -0.0200311 -0.00472431
0.00604712 -0.0126612 -0.00170075
0.00245664 -0.00604712 -0.00661404
0.00642507 -0.0117163 -0.00925966
0.00340151 -0.0103935 0.00396842
-0.00396842 -0.000566918 0.00529123
-0.0062361 0.00529123 0.000944863
0 0.00264562 -0.00585815
0.00264562 0.00170075 -0.00793685
0.0187083 -0.0289128 -0.0041574
-0.00359048 -0.0134171 -0.0132281
0.00680301 -0.0124722 -0.0156847
0.00132281 -0.00359048 -0.00869274
-0.0597153 0.00642507 -0.0427078
-0.0861715 0.0194642 -0.0445975
0.0444086 -0.00850377 0.0487549
0.0672742 -0.020598 0.0468652
-0.00566918 -0.0368497 -0.00396842
-0.00718096 0.0041574 0.013984
0.0183303 0.0665184 0.0158737
0.0202201 0.0247554 -0.00264562
-0.0187083 0.0823921 0.0576366
0.020787 0.105636 0.0181414
0.00661404 0.0614161 0.020598
-0.0540462 0.0260782 -0.0020787
-0.0128501 0.0385504 0.0544241
0.00812582 -0.0158737 0.00302356
0.00604712 -0.0153068 0.00774788
-0.00812582 0.00170075 0.0103935
-0.0122832 0.0120942 0.00245664
0.00377945 0.00831479 -0.00869274
-0.00812582 -0.0156847 -0.013606
Vibration 7
-0.0119053 0.00396842 0.00491329
-0.0115273 0.00283459 0.00566918
-0.0102045 0.00170075 0.0041574
-0.00850377 0.00283459 0.00434637
-0.00850377 0.00434637 0.00642507
-0.0102045 0.00510226 0.00680301
-0.00736993 0.00510226 0.00699199
-0.0102045 0.00793685 0.00812582
-0.0103935 0.0107714 0.00982658
-0.00944863 0.00245664 0.00075589
0.0111494 -0.000944863 0.0103935
0.020598 -0.00585815 0.00925966
0.00831479 -0.00774788 -0.00188973
-0.0151178 -0.00359048 -0.0141729
-0.0236216 0.00132281 -0.0124722
0.0222988 -0.013795 0.000188973
-0.0102045 0.00132281 0.00283459
-0.00793685 -0.0578256 0.00075589
-0.00812582 -0.0491329 0.00151178
-0.0111494 0.0194642 0.00453534
-0.0134171 0.0742662 0.0062361
-0.0126612 0.0638727 0.00510226
-0.0120942 0.0349599 0.00529123
0.0141729 -0.0179524 -0.00869274
0.00132281 0.00736993 0.00925966
0.00529123 0.00359048 -0.00566918
0.0151178 -0.00831479 -0.0103935
0.00188973 -0.00850377 -0.00566918
-0.00434637 0.000944863 -0.00113384
0.034582 -0.0179524 -0.0158737
0.0393063 -0.0272121 -0.0175745
0.0245664 -0.0270231 -0.013984
0.00245664 -0.0196532 -0.00736993
-0.00472431 -0.00812582 -0.00396842
0.0041574 0.0122832 -0.00548021
0.00566918 0.0075589 0.0111494
-0.0122832 0.00226767 0.00604712
-0.00151178 -0.0020787 0.00132281
0.020409 0 0.0188973
0.0376055 -0.00869274 0.0171965
-0.0260782 -0.00434637 -0.0243775
-0.041196 0.00377945 -0.020598
-0.00566918 -0.109226 -0.000944863
-0.00642507 -0.0952422 0
-0.0153068 0.124911 0.00869274
-0.0147399 0.104691 0.0062361
-0.0226767 0.0389284 0.0222988
-0.00850377 0.0536682 -0.0041574
-0.00642507 0.0249444 -0.00264562
0.0326923 -0.0236216 -0.00113384
0.00642507 -0.0321253 -0.0260782
0.000188973 -0.00151178 -0.00396842
0.0472432 -0.0185193 -0.0190862
0.0557469 -0.0334482 -0.0219208
0.0279679 -0.0326923 -0.0153068
-0.00793685 -0.0332592 -0.00680301
0.0117163 0.0111494 0.0126612
Vibration 8
-0.00529123 0.000944863 -0.00264562
-0.00491329 0.00113384 -0.0234326
-0.00396842 0.000377945 -0.0247554
-0.00226767 0.00113384 -0.0260782
-0.00472431 0.00075589 -0.0102045
-0.00604712 0.00264562 0.0151178
-0.00434637 -0.000566918 -0.0198421
-0.00888171 0.0102045 0.0663294
-0.0119053 0.0183303 0.115462
-0.00075589 -0.000944863 0.0020787
0.0279679 -0.0120942 0.0224877
0.034393 -0.0153068 0.0232436
0.00925966 -0.0075589 0.00226767
-0.0190862 0.00226767 -0.0179524
-0.0230547 0.00453534 -0.0170075
0.0173855 -0.0111494 0.00434637
-0.00377945 -0.00075589 -0.0154958
-0.0168186 0.0124722 -0.00718096
-0.0166296 0.0126612 0.00793685
-0.00321253 -0.00113384 0.0143619
0.0102045 -0.0145509 0.0062361
0.0096376 -0.013984 -0.00869274
-0.00283459 -0.00132281 0.0304246
-0.0202201 0.00188973 -0.0268341
-0.00604712 -0.00434637 -0.0308025
0.0075589 -0.0175745 -0.0100155
0.00718096 -0.00793685 -0.000188973
-0.00075589 0.00736993 -0.0120942
-0.000944863 -0.000566918 -0.0202201
0.013795 -0.00774788 0.0151178
0.0113384 0.0103935 0.0194642
0.00566918 0.0245664 0.00907068
0.00283459 0.0232436 -0.00831479
0.00831479 0.0353379 -0.0183303
0.0128501 -0.0338261 -0.00982658
-0.0128501 -0.0164406 -0.0349599
-0.00434637 0.00113384 -0.0309915
0.00491329 0.0173855 -0.0175745
0.0455424 -0.0181414 0.0366607
0.0578256 -0.0234326 0.0391173
-0.0374166 0.00812582 -0.0336371
-0.0440306 0.0107714 -0.0302356
-0.02759 0.0228657 -0.0122832
-0.0272121 0.0234326 0.0143619
0.020787 -0.0251334 0.0113384
0.0202201 -0.0236216 -0.0149288
-0.00226767 -0.00226767 0.0141729
0.0075589 -0.0177634 0.0453534
-0.0132281 0.0158737 0.0442196
-0.0100155 -0.00170075 -0.0202201
-0.0173855 -0.00132281 -0.0695419
-0.0578256 0.0173855 -0.0115273
0.020409 -0.0202201 0.0245664
0.0141729 0.0117163 0.0321253
0.00321253 0.0377945 0.0126612
0.00396842 0.0258892 -0.0120942
-0.0211649 -0.0253223 -0.0436527
Vibration 9
-0.0153068 0.0103935 0.00869274
-0.0149288 0 0.0187083
-0.0062361 -0.00529123 0.0196532
0.0020787 -0.000188973 0.0175745
0.00529123 0.0096376 0.00472431
-0.00566918 0.0153068 0.00434637
0.0160627 0.0134171 -0.00736993
-0.00453534 0.0279679 -0.0062361
-0.00359048 0.0406291 -0.0153068
-0.0211649 0.0126612 -0.0020787
-0.0100155 0.0154958 -0.00226767
-0.000944863 0.0105825 -0.00585815
-0.00264562 0.00245664 -0.00888171
-0.0211649 0.00283459 -0.0153068
-0.0304246 0.00831479 -0.0119053
0.0151178 -0.00529123 -0.00642507
-0.0062361 -0.00982658 0.0130391
0.00302356 -0.000188973 0.00736993
0.00226767 0.0113384 -0.00396842
-0.00812582 0.0128501 -0.0096376
-0.0171965 -0.0020787 -0.0041574
-0.0160627 -0.0132281 0.00718096
-0.0096376 0.0326923 -0.0211649
0.0430858 -0.027779 0.0128501
0.00774788 0 -0.0417629
0.034393 -0.0160627 0.0171965
0.0151178 -0.00736993 0.0117163
0.0062361 -0.00548021 0.0124722
0.0120942 -0.0062361 0.0162516
-0.00604712 0.000944863 0.00661404
-0.0377945 0.0096376 0.00377945
-0.0368497 0.00680301 0.00585815
0.00283459 -0.00377945 0.0117163
0.020409 -0.0444086 0.00888171
0.0634948 -0.0291018 0.0211649
-0.00132281 -0.0374166 -0.0510226
-0.0219208 -0.00377945 0.0226767
0.0128501 -0.0404401 -0.0115273
-0.00680301 0.020976 0.00170075
0.00925966 0.0120942 -0.00472431
-0.027779 -0.00151178 -0.0221098
-0.0436527 0.00793685 -0.0156847
0.0109604 0.000377945 0.0117163
0.0096376 0.020787 -0.00850377
-0.0253223 -0.00340151 -0.00869274
-0.0236216 -0.0217318 0.0115273
-0.0239995 0.0379835 -0.0020787
-0.00982658 0.0563138 -0.0351489
0.00340151 0.020409 -0.0338261
0.0721875 -0.0368497 0.0245664
0.0221098 -0.0563138 0.0238105
0.0570697 -0.00699199 0.00472431
-0.00359048 0.00188973 0.00491329
-0.0646286 0.0179524 0.000944863
-0.062361 0.0111494 0.00491329
0.0253223 0.0192752 0.0226767
-0.00850377 -0.0555579 -0.0738883
Vibration 10
0.00188973 0.00396842 0.0294797
0.00151178 0.0107714 0.0428968
-0.00510226 0.0145509 0.0251334
-0.0107714 0.0120942 0.00283459
-0.0102045 0.0020787 -0.00283459
-0.00340151 -0.00151178 0.00661404
-0.0162516 -0.00340151 -0.0175745
-0.00264562 -0.0153068 -0.0132281
-0.00188973 -0.0294797 -0.0317474
0.00736993 0.000566918 0.027401
-0.000566918 0.013984 0.0100155
-0.00170075 0.013606 -0.00340151
0.00585815 -0.000188973 0.000944863
0.0190862 -0.0154958 0.0219208
0.0192752 -0.013984 0.034771
-0.000566918 0.00283459 -0.0183303
-0.00529123 0.0170075 0.0175745
0.00548021 0.0109604 0.0105825
0.00604712 -0.00226767 -0.00264562
-0.00472431 -0.00907068 -0.00888171
-0.0160627 0.00302356 -0.00188973
-0.0162516 0.0158737 0.0113384
-0.00359048 -0.0311805 -0.0238105
-0.00831479 -0.00566918 -0.0283459
-0.0370386 -0.0134171 -0.0389284
0.0111494 -0.000377945 0.00132281
0.0170075 -0.00321253 0.00340151
-0.0109604 0.0126612 -0.00264562
-0.0115273 0.0132281 -0.00264562
0.0495108 -0.0156847 0.0124722
0.048377 -0.00680301 0.0147399
0.0202201 0.00907068 0.00850377
-0.00850377 0.0162516 -0.00132281
-0.00831479 0.0410071 -0.00944863
0.020598 -0.00699199 0.00245664
-0.0406291 -0.027401 -0.0423299
0.00585815 0.013606 0.061983
-0.0105825 0.0236216 -0.0062361
-0.00699199 0.0255113 0.00699199
-0.0096376 0.0241885 -0.0177634
0.0283459 -0.0279679 0.0281569
0.027779 -0.0245664 0.0489439
0.0141729 0.0147399 0.0154958
0.0147399 -0.00869274 -0.00812582
-0.0243775 0.00075589 -0.00680301
-0.0249444 0.0228657 0.0166296
0.0119053 -0.0357158 -0.0198421
-0.020598 -0.0317474 -0.0319364
-0.000944863 -0.0447865 -0.0319364
-0.0234326 0.00264562 -0.0527234
0.00113384 0.0100155 -0.0164406
-0.00925966 -0.034771 -0.0251334
0.0767229 -0.0311805 0.0185193
0.0712427 -0.0128501 0.0222988
0.0177634 0.0168186 0.0105825
-0.0181414 0.00359048 -0.00340151
-0.0585815 -0.0457314 -0.0589595
Vibration 11
-0.0120942 0.00113384 0.034204
-0.0119053 -0.00453534 0.0487549
-0.00680301 -0.00793685 0.0192752
-0.00113384 -0.00396842 -0.0185193
-0.00170075 -0.00264562 -0.0234326
-0.00718096 0.000377945 0.00302356
0.00566918 -0.00529123 -0.0540462
-0.00699199 0.00188973 0.000188973
-0.00699199 0.00151178 -0.000188973
-0.0100155 -0.00075589 0.0351489
-0.0075589 0.0122832 0.020598
0.00113384 0.00718096 0.00680301
0.00642507 -0.0120942 0.00812582
0.00680301 -0.0272121 0.0245664
-0.00188973 -0.0202201 0.0377945
0.013795 -0.0154958 -0.0109604
-0.00680301 -0.0120942 0.0153068
0.000566918 -0.00869274 0.0103935
0.000377945 -0.00188973 0.00075589
-0.00850377 0.000944863 -0.00377945
-0.0162516 -0.00793685 0.00075589
-0.0153068 -0.0141729 0.0103935
-0.00982658 0.0154958 -0.0145509
-0.0103935 -0.0270231 -0.0377945
0.0425188 0.0202201 0.00396842
0 -0.0143619 -0.0168186
-0.00661404 -0.00321253 -0.0100155
0.00359048 -0.000188973 -0.0168186
0.0020787 -0.00585815 -0.0232436
-0.0234326 0.00585815 -0.000566918
-0.0228657 0.0177634 0.00283459
-0.00472431 0.0190862 -0.00264562
0.0115273 0.0126612 -0.0128501
0.0198421 0.00831479 -0.020598
0.00472431 -0.0279679 -0.0168186
0.05518 0.0763449 0.0187083
-0.0162516 -0.00642507 0.0786126
0.0198421 0.020409 -0.027401
-0.0122832 0.027779 0.0198421
0.00283459 0.0179524 -0.00491329
0.013795 -0.0438416 0.027779
-0.00321253 -0.0311805 0.0491329
0.00718096 -0.0096376 0.013984
0.00661404 0.00245664 -0.00302356
-0.0228657 -0.00869274 -0.00302356
-0.0217318 -0.0187083 0.0143619
-0.020787 0.0192752 -0.00869274
-0.0109604 0.0266451 -0.0217318
0.00113384 0.0134171 -0.0213539
-0.0141729 -0.0211649 -0.0629279
-0.00340151 -0.0179524 -0.0444086
-0.0306136 -0.0495108 -0.0266451
-0.0364717 0.0041574 0.00529123
-0.0370386 0.0238105 0.0100155
-0.0020787 0.0253223 -0.000566918
0.0200311 0.0234326 -0.0111494
0.082581 0.11584 0.0612271
Vibration 12
0.00642507 -0.0075589 0.0264562
0.00642507 -0.0102045 0.0364717
0.0109604 -0.0120942 0.0145509
0.0149288 -0.00944863 -0.0126612
0.0126612 -0.00869274 0.00548021
0.0103935 -0.0062361 0.0134171
0.0119053 -0.00736993 0.0134171
0.0109604 -0.000944863 0.00699199
0.0115273 0.00548021 0.00170075
-0.00453534 -0.00283459 0.0164406
0.00642507 -0.00340151 0.0202201
-0.00944863 0.00321253 0.000566918
-0.0340151 0.00831479 -0.020409
-0.0493218 0.0103935 -0.027779
-0.034582 0.00453534 -0.00925966
-0.0468652 0.0141729 -0.0385504
0.0113384 -0.0147399 0.0107714
0.0171965 -0.0128501 0.00718096
0.0170075 -0.00529123 0.00113384
0.0113384 0.000377945 -0.00170075
0.00585815 -0.00736993 0.00151178
0.00661404 -0.0147399 0.00793685
0.0102045 0.0168186 -0.00831479
0.0519675 -0.0368497 0.0381725
0.000188973 -0.0105825 0.0103935
-0.0145509 0.000944863 -0.0179524
-0.0102045 0.00396842 -0.0107714
0.00359048 0.00377945 -0.0158737
0.0100155 -0.00548021 -0.0198421
-0.00831479 0.00529123 0.00113384
0.0119053 0.0103935 0.00604712
0.0196532 0.0156847 0
0.00283459 0.0183303 -0.0141729
-0.00566918 0.0495108 -0.0170075
-0.0389284 0.00548021 -0.0215429
-0.0145509 -0.0119053 0.00377945
0.00377945 -0.0111494 0.0570697
-0.00359048 0.0296687 -0.00188973
0.0285349 -0.00907068 0.0385504
-0.00075589 0.00340151 0.00264562
-0.0744552 0.0173855 -0.0495108
-0.0470542 0.00604712 -0.0147399
0.0221098 -0.0158737 0.0096376
0.020976 -0.00245664 -0.00132281
0.00132281 -0.00604712 -0.000944863
0.00283459 -0.0190862 0.0102045
-0.00226767 0.020787 -0.00510226
0.0119053 0.0258892 -0.0128501
0.0192752 0.0183303 -0.0126612
0.0822031 -0.0461093 0.0502667
0.0153068 -0.0765339 0.114706
0.127745 -0.0236216 0.00321253
-0.0192752 0.00188973 0.00774788
0.0215429 0.00869274 0.0143619
0.0360938 0.0194642 0.00226767
-0.00793685 0.0109604 -0.027401
-0.0292908 -0.0190862 0.00264562
Vibration 13
-0.0130391 0.0075589 0.0113384
-0.013606 -0.00302356 0.00604712
-0.00264562 -0.00925966 -0.0113384
0.00812582 -0.00377945 -0.0198421
0.00340151 0.00774788 0.0287238
-0.00434637 0.0128501 0.0130391
0.00321253 0.0202201 0.0876833
-0.00264562 0.0251334 -0.0134171
0 0.0396842 -0.0462983
-0.0151178 0.00850377 0.00850377
-0.0202201 0.0177634 -0.00396842
-0.00377945 0.0100155 -0.00075589
0.0162516 -0.00699199 0.0141729
0.0177634 -0.0151178 0.0234326
0.00170075 -0.0062361 0.0202201
0.0410071 -0.0179524 0.020409
-0.00245664 -0.020787 -0.0132281
-0.00907068 -0.020976 -0.00888171
-0.0096376 -0.0113384 -0.000566918
-0.00359048 -0.00188973 0.00321253
0.00377945 -0.0151178 -0.00132281
0.00377945 -0.0241885 -0.0096376
-0.00529123 0.02759 0.013984
-0.0236216 -0.00170075 -0.0351489
0.00793685 -0.000188973 0.027779
-0.00680301 -0.00377945 -0.0188973
-0.00321253 0.000944863 -0.0105825
0.013984 0.000377945 -0.0162516
0.0128501 -0.00566918 -0.0230547
-0.0147399 0.00793685 -0.000188973
-0.000944863 0.0151178 0.0041574
0.0153068 0.0170075 -0.00132281
0.0170075 0.0145509 -0.0132281
0.0154958 0.0294797 -0.0179524
-0.0238105 -0.00680301 -0.0219208
-0.00151178 -0.0731324 0.0119053
-0.020787 -0.0075589 0.0128501
0.0143619 -0.0096376 0.000566918
-0.0364717 0.0315584 -0.0153068
-0.00661404 0.0166296 -0.00907068
0.0336371 -0.0291018 0.0353379
0.00359048 -0.0124722 0.02759
-0.0143619 -0.0255113 -0.0120942
-0.0149288 -0.00812582 0.00264562
0.00907068 -0.0149288 0.00170075
0.00944863 -0.0304246 -0.0128501
-0.0268341 0.034393 0.0132281
0.0120942 0.034204 0.0187083
-0.00283459 0.0404401 0.0188973
-0.0245664 0.000566918 -0.0457314
-0.00944863 0.00944863 -0.089384
-0.0805023 -0.00434637 -0.0096376
-0.0326923 0.00774788 0.00566918
-0.00472431 0.0177634 0.0117163
0.0260782 0.0213539 0.00075589
0.0164406 0.0177634 -0.020409
-0.0119053 -0.104502 -0.0302356
Vibration 14
-0.000944863 -0.00170075 -0.00850377
0.000188973 -0.0134171 0.00226767
0.0113384 -0.0198421 0.0156847
0.0196532 -0.0147399 0.0179524
0.0245664 -0.00377945 -0.0156847
0.0100155 0.00283459 -0.0107714
0.0417629 -0.00377945 -0.0498888
0.0107714 0.0313695 -0.000944863
0.0111494 0.0685971 0.0122832
-0.00680301 0.00113384 -0.0109604
-0.0153068 0.00377945 -0.0166296
-0.00604712 -0.000377945 -0.00736993
0.0109604 -0.0062361 0.00661404
0.013795 -0.0062361 0.00736993
0.00510226 -0.00226767 -0.00132281
0.0292908 -0.0147399 0.0230547
0.0120942 -0.0319364 0.0158737
0.0211649 -0.0336371 0.0102045
0.020787 -0.0202201 0.000566918
0.0117163 -0.00453534 -0.00340151
0.00359048 -0.0219208 0.00132281
0.00472431 -0.0351489 0.0111494
0.00869274 0.0381725 -0.0141729
-0.0183303 0.00774788 -0.0147399
-0.013795 -0.00188973 -0.0192752
-0.0105825 0.00699199 0.0105825
-0.00529123 -0.000566918 0.00661404
-0.000944863 -0.00718096 0.0117163
0.0151178 -0.0128501 0.0183303
0.00264562 -0.00491329 0.00264562
0.0113384 -0.013984 0.00188973
0.000566918 -0.013606 0.0041574
-0.0238105 -0.00642507 0.00510226
-0.0468652 0.0188973 0.0211649
-0.0453534 0.034582 0.00661404
-0.0625499 0.0410071 -0.0328812
-0.00888171 -0.0183303 0.00075589
-0.0398732 0.0478101 0.0221098
-0.0281569 0.00850377 -0.0268341
-0.0109604 0.00075589 -0.0100155
0.0251334 -0.0102045 0.0170075
0.00907068 -0.00283459 0.000377945
0.0287238 -0.041574 0.013795
0.0272121 -0.0179524 -0.00340151
-0.00359048 -0.020409 -0.00264562
-0.00132281 -0.0447865 0.0149288
-0.0236216 0.048377 -0.00982658
0.0177634 0.0570697 -0.020787
0.0285349 0.0470542 -0.020409
-0.0173855 0.00661404 -0.0100155
-0.00869274 0.013606 -0.0629279
-0.0612271 0.0183303 0.00340151
0.00377945 -0.00226767 -0.000188973
0.0279679 -0.0200311 -0.00151178
0.0075589 -0.0175745 0.00359048
-0.0436527 -0.0219208 -0.0170075
-0.0990216 0.0398732 -0.00869274
Vibration 15
0.00434637 -0.00680301 -0.0128501
0.00359048 -0.00434637 0.0221098
0.00151178 -0.0020787 0.034771
0.00113384 -0.00132281 0.00585815
0.00151178 -0.00491329 0.00264562
0.00434637 -0.00585815 -0.00718096
-0.00226767 -0.00548021 0.00774788
0.00302356 -0.0192752 0.00661404
0.000566918 -0.0436527 0.0311805
-0.0096376 -0.00188973 -0.0357158
-0.0317474 0.000377945 -0.0438416
-0.0313695 0 -0.0304246
-0.00718096 -0.00113384 -0.00944863
-0.013795 0.0109604 -0.0247554
-0.0113384 0.00736993 -0.034771
0.0359048 -0.020976 0.0457314
0.00151178 0.00226767 0.041385
0.0185193 0.00510226 0.0306136
0.0190862 0.00491329 0.00869274
0.000944863 0.00283459 -0.000944863
-0.0171965 0.00699199 0.00982658
-0.0154958 0.00585815 0.0315584
0.000944863 -0.00680301 -0.0304246
-0.0147399 0.0213539 0.0120942
0.00132281 -0.00680301 0.00302356
0.00113384 0.00302356 -0.00831479
-0.0102045 0.00812582 -0.00982658
-0.00453534 0.00453534 -0.00944863
0 0.00170075 -0.00718096
-0.013795 0.0103935 -0.00491329
0.00321253 0.00982658 -0.0020787
0.0181414 0.00642507 -0.00264562
0.00718096 0.00850377 -0.00642507
0.0119053 0.0253223 -0.0179524