[Molden Format]
[FREQ]
-363.5
18.3
23.3
27.0
29.4
32.0
34.5
36.1
43.2
44.8
62.9
66.1
80.2
86.2
106.7
116.5
125.1
131.9
144.8
156.1
169.9
179.1
192.2
208.0
214.5
248.0
254.4
258.4
266.3
284.3
307.4
314.6
325.6
333.5
344.3
354.8
356.9
373.1
387.6
420.2
458.2
477.6
482.6
498.0
506.1
521.7
529.9
540.0
547.4
569.9
573.0
583.6
605.1
612.7
617.4
635.4
641.5
644.1
646.3
677.9
695.0
705.5
727.7
759.1
771.7
783.6
792.3
825.7
844.9
863.3
881.1
883.0
892.0
900.8
902.3
933.5
948.0
981.8
985.9
1004.8
1009.4
1011.4
1017.0
1023.2
1025.6
1032.7
1044.6
1070.9
1074.0
1081.0
1103.1
1119.0
1126.6
1152.2
1178.7
1183.5
1183.9
1184.8
1191.8
1206.6
1240.0
1256.9
1261.6
1263.2
1269.8
1272.3
1283.3
1287.1
1292.3
1299.7
1307.6
1329.3
1329.6
1337.3
1339.3
1348.6
1352.5
1354.3
1359.6
1366.8
1383.1
1394.1
1426.5
1474.0
1499.8
1518.6
1525.2
1528.0
1533.5
1567.7
1571.4
1594.9
1620.4
1675.5
1696.9
1699.3
1700.3
1703.2
1706.4
1708.6
1810.8
1824.4
1844.5
2451.7
2651.3
2654.4
2665.7
2672.9
2718.6
2737.3
2739.0
2741.8
2745.0
2747.3
2747.7
2749.3
2755.7
2761.1
2765.6
2766.1
2766.7
2767.8
2769.4
2770.8
2779.4
       
[FR-COORD]
C -2.16941 -3.45877 0.664617
C 0.483014 -3.45877 0.664617
C 1.84286 -1.18731 0.664617
N 0.555579 0.997964 0.616429
C -2.12084 1.09547 0.739072
C -3.5302 -1.18883 0.683136
N -2.41753 3.55552 0.918029
C -6.18677 -1.0779 0.638727
N -8.37394 -0.969996 0.597909
C -3.49184 -5.89387 0.642885
C -2.95799 -7.65037 -1.2682
C -4.19311 -9.95621 -1.32545
C -5.9704 -10.5033 0.572776
C -6.51162 -8.78571 2.49935
C -5.26232 -6.4708 2.51182
O -7.02884 -12.8224 0.299711
C 4.61755 -1.09774 0.635704
C 5.92127 0.432558 2.34666
C 8.54723 0.520053 2.28336
C 9.88232 -0.911226 0.510037
C 8.56858 -2.44663 -1.1945
C 5.9447 -2.54716 -1.12892
C 12.6956 -0.825621 0.455235
C -8.94029 -13.5187 2.05432
C 0.0364717 11.4812 0.438605
C 0.956579 4.07935 0.832613
C 1.48003 5.23246 -1.67902
C 0.511549 7.60955 -2.27977
C -1.12968 9.07409 -0.518919
C 3.04 3.97561 -3.39338
C 3.609 5.08034 -5.71264
C 2.62218 7.44495 -6.32378
C 1.0813 8.7122 -4.60753
O -3.34179 8.60543 -0.205791
O 1.76859 4.7366 2.84196
O 0.908013 11.2577 2.70533
H 1.50101 -5.2404 0.714883
H -3.91929 4.67159 0.84603
H -1.5766 -7.18436 -2.72687
H -3.82424 -11.3374 -2.79963
H -7.88375 -9.21052 3.96143
H -5.6739 -5.09829 3.99904
H 4.87663 1.56961 3.72937
H 9.55975 1.71398 3.6175
H 9.60302 -3.56742 -2.57097
H 4.92293 -3.74638 -2.45759
H 13.4446 1.01346 1.06505
H 13.4675 -1.19298 -1.43638
H 13.5011 -2.26181 1.72967
H -9.49039 -15.4022 1.37572
H -10.546 -12.2175 1.95435
H -8.17344 -13.6368 3.97107
H 3.82518 2.12537 -2.92416
H 4.82201 4.09107 -7.04811
H 3.05455 8.3027 -8.14302
H 0.310293 10.5632 -5.08544
H 1.6862 12.8413 3.37429

[FR-NORM-COORD]
Vibration 1
-0.0020787 0.0113384 -0.00132281
0.0143619 0.0563138 -0.00491329
-0.013984 0.0593374 0.00226767
-0.0219208 0.089762 0.0179524
-0.0521564 0.047999 0.0062361
0.00075589 -0.0162516 -0.00264562
-0.20976 -0.0170075 -0.0115273
-0.000377945 -0.00925966 -0.00245664
-0.000188973 -0.00075589 -0.000188973
0.0109604 0.00132281 0.00226767
0.00548021 0.00113384 0.00170075
0.00188973 0.0020787 0.000377945
0.00151178 0.00151178 -0.000377945
0.00283459 0.00245664 -0.000944863
0.0062361 0.000944863 -0.000566918
0.00075589 0.00132281 -0.000377945
-0.00850377 0.0257003 -0.00188973
0.00396842 0.00453534 0.00661404
0.00302356 -0.00075589 0.00321253
-0.00113384 -0.000566918 -0.000377945
-0.00888171 0.0020787 0.00321253
-0.0105825 0.0143619 0.00340151
-0.00151178 -0.00188973 -0.00188973
0.00075589 0.00132281 -0.000377945
0.0020787 -0.013606 0.000377945
0.237917 -0.141918 -0.0232436
0.0374166 -0.0257003 0.00113384
0.0096376 -0.0311805 0.020598
0.00170075 -0.0217318 0.0113384
0.0200311 -0.0109604 -0.0302356
0.00434637 0.00226767 -0.0219208
-0.00604712 0.00491329 0.00170075
-0.00548021 -0.0175745 0.0168186
-0.00226767 0.000566918 -0.00604712
0.0308025 -0.0188973 0.00566918
0.00132281 -0.00170075 0.00245664
0.0268341 0.0634948 -0.0100155
-0.30538 -0.148155 0.0510226
0.00510226 -0.000188973 0.00113384
0.000188973 0.00340151 -0.000944863
0.00113384 0.00453534 -0.0020787
0.00491329 0.00151178 -0.00113384
0.0166296 -0.0122832 0.027779
0.00831479 -0.00888171 0.00699199
-0.013606 -0.00491329 0.00472431
-0.0147399 0.0154958 0.00434637
0 -0.0020787 -0.00264562
-0.0020787 -0.00302356 -0.0020787
-0.00113384 -0.00188973 -0.00151178
0.00075589 0.00132281 -0.000188973
0.00075589 0.00151178 -0.000377945
0.000566918 0.00151178 -0.000377945
0.0230547 -0.0164406 -0.0536682
-0.00151178 0.013984 -0.0357158
-0.0147399 0.0196532 0.0062361
-0.0194642 -0.0194642 0.0300466
-0.00888171 0.00340151 -0.00132281
Vibration 2
-0.0075589 -0.00396842 -0.0226767
-0.0075589 -0.00340151 -0.0185193
-0.00812582 -0.00321253 -0.0198421
-0.00812582 -0.00340151 -0.0251334
-0.00850377 -0.00377945 -0.0328812
-0.00793685 -0.00396842 -0.0351489
-0.00869274 -0.00396842 -0.0304246
-0.00774788 -0.00453534 -0.0478101
-0.0075589 -0.00510226 -0.0595264
-0.00661404 -0.00453534 -0.00736993
-0.00226767 -0.020976 0.00907068
0.0020787 -0.0239995 0.0296687
0.00226767 -0.0100155 0.0338261
-0.00359048 0.00736993 0.0166296
-0.00812582 0.00982658 -0.0041574
0.00888171 -0.0156847 0.0563138
-0.00793685 -0.00264562 -0.0158737
-0.0103935 -0.00642507 -0.0109604
-0.0103935 -0.00491329 -0.00850377
-0.00812582 0.000377945 -0.0111494
-0.00585815 0.00377945 -0.0160627
-0.00585815 0.00226767 -0.0183303
-0.00812582 0.00226767 -0.00907068
0.0130391 -0.00529123 0.0650066
0.00396842 -0.0041574 0.0389284
-0.00869274 -0.00491329 -0.0100155
0.0075589 0.00944863 0.000188973
0.0168186 0.0160627 0.0115273
0.00718096 0.00510226 0.0117163
0.0151178 0.0179524 0.000944863
0.0336371 0.034393 0.0132281
0.0440306 0.0417629 0.0247554
0.0351489 0.0325033 0.0238105
0.00453534 0.00548021 -0.00680301
-0.0202201 -0.0151178 -0.00170075
-0.0128501 -0.0232436 0.0434637
-0.00718096 -0.00302356 -0.0126612
-0.00793685 -0.00302356 -0.0330702
-0.0020787 -0.0319364 0.00566918
0.00585815 -0.0370386 0.0428968
-0.00453534 0.0187083 0.0190862
-0.0122832 0.0230547 -0.0173855
-0.0120942 -0.0103935 -0.00907068
-0.0120942 -0.00774788 -0.00472431
-0.0041574 0.00793685 -0.0179524
-0.00434637 0.00491329 -0.0221098
-0.0096376 0.000944863 -0.00302356
-0.00661404 0.00850377 -0.0096376
-0.00812582 -0.00113384 -0.0126612
0.020409 -0.0147399 0.0852266
0.00736993 -0.0130391 0.0521564
0.0145509 0.0181414 0.0657625
0.00680301 0.0122832 -0.00793685
0.0398732 0.041385 0.013606
0.0591484 0.0548021 0.034582
0.0428968 0.0379835 0.0326923
-0.0151178 -0.0296687 0.0614161
Vibration 3
-0.0103935 -0.00132281 -0.00907068
-0.0103935 0 -0.00396842
-0.0117163 0.00075589 -0.00302356
-0.0132281 -0.000566918 -0.00699199
-0.013795 -0.00113384 -0.0109604
-0.0120942 -0.00226767 -0.0130391
-0.0126612 -0.000944863 -0.013795
-0.0120942 -0.00453534 -0.0198421
-0.0120942 -0.00661404 -0.0258892
-0.0062361 -0.00359048 -0.00869274
0.00359048 -0.00642507 -0.00359048
0.013984 -0.0119053 0.000944863
0.0143619 -0.0151178 0.000566918
0.0020787 -0.0111494 -0.00642507
-0.00831479 -0.00529123 -0.0111494
0.0279679 -0.0221098 0.00736993
-0.0117163 0.00302356 0.00453534
-0.0185193 0.00472431 0.00831479
-0.0183303 0.00529123 0.0177634
-0.0113384 0.00434637 0.0238105
-0.00472431 0.00321253 0.0198421
-0.00510226 0.00245664 0.0102045
-0.0111494 0.00472431 0.0351489
0.0338261 -0.0291018 0.0107714
0.0608492 0.0213539 -0.000377945
-0.0143619 -0.00151178 -0.0096376
-0.0170075 -0.00151178 -0.0103935
0.00377945 0.0111494 0.0062361
0.0368497 0.0215429 0.0285349
-0.0462983 -0.0132281 -0.0281569
-0.0563138 -0.0120942 -0.0304246
-0.0366607 0.000377945 -0.013984
-0.0062361 0.0122832 0.00453534
0.041385 0.0279679 0.0684081
-0.0147399 0.000944863 -0.0100155
0.111305 0.0247554 -0.0192752
-0.00944863 0.00075589 -0.000188973
-0.00944863 0.00340151 -0.00680301
0.00377945 -0.00434637 -0.00283459
0.0222988 -0.0145509 0.00548021
0.000944863 -0.0126612 -0.00793685
-0.0173855 -0.00264562 -0.0162516
-0.0236216 0.00529123 0.00377945
-0.0234326 0.00661404 0.020598
0.000566918 0.00264562 0.0241885
0.000188973 0.00132281 0.00718096
-0.0147399 0.00982658 0.0241885
-0.00264562 -0.0096376 0.041385
-0.0162516 0.0149288 0.0496998
0.0476211 -0.0360938 0.0187083
0.0239995 -0.041574 0.00585815
0.0349599 -0.0154958 0.0111494
-0.0616051 -0.0230547 -0.041196
-0.0799354 -0.0213539 -0.0449755
-0.0447865 0.000944863 -0.0156847
0.00982658 0.0222988 0.0175745
0.127745 0.0253223 -0.0402512
Vibration 4
0.00548021 -0.0113384 0.013795
0.00566918 -0.00812582 0.020976
0.00283459 -0.00642507 0.0154958
0 -0.00812582 0.0096376
-0.000188973 -0.0105825 0.00340151
0.00283459 -0.0122832 0.00226767
-0.00264562 -0.0103935 -0.00226767
0.00302356 -0.0141729 -0.013795
0.00321253 -0.0149288 -0.0285349
0.00585815 -0.0113384 0.0145509
0.0289128 -0.0253223 0.0336371
0.0213539 -0.020976 0.0283459
-0.0109604 -0.00283459 0.00340151
-0.0309915 0.00888171 -0.0126612
-0.0217318 0.00377945 -0.00661404
-0.0196532 0.00188973 -0.00226767
0.00264562 0.00226767 0.00925966
0.00188973 0.0122832 0.00075589
0.00075589 0.0323143 -0.0156847
0.000377945 0.0417629 -0.0236216
0.00132281 0.0279679 -0.0120942
0.00245664 0.00793685 0.00453534
-0.00075589 0.0668963 -0.0459203
-0.0593374 0.0257003 -0.0360938
0.0126612 -0.00340151 -0.000188973
-0.00340151 -0.00774788 0.00510226
0.000944863 -0.0102045 0.00491329
0.00736993 -0.0075589 0.00548021
0.0105825 -0.00491329 0.0062361
-0.00226767 -0.013984 0.00472431
0.00113384 -0.0145509 0.00510226
0.00774788 -0.0117163 0.00585815
0.0107714 -0.00812582 0.00604712
0.0113384 -0.00491329 0.0117163
-0.00850377 -0.00377945 0.00585815
0.020598 -0.000377945 -0.00283459
0.00812582 -0.00642507 0.0296687
-0.00264562 -0.0107714 -0.00434637
0.0523454 -0.0389284 0.0514005
0.0389284 -0.0309915 0.0421409
-0.0534792 0.0219208 -0.0300466
-0.0372276 0.0124722 -0.0188973
0.00188973 0.00585815 0.0062361
0 0.041385 -0.0232436
0.00132281 0.0334482 -0.0164406
0.00321253 -0.00170075 0.0128501
-0.0109604 0.0646286 -0.0270231
-0.0143619 0.0995886 -0.0580146
0.0224877 0.0561249 -0.0729434
-0.0625499 0.02759 -0.0385504
-0.0462983 0.0389284 -0.0721875
-0.0969429 0.0272121 -0.020976
-0.00736993 -0.0162516 0.00377945
-0.00132281 -0.0175745 0.00510226
0.0105825 -0.0120942 0.00642507
0.0158737 -0.00604712 0.00642507
0.0219208 0.000944863 -0.0075589
Vibration 5
-0.0134171 -0.000944863 0.00453534
-0.0134171 -0.00245664 0.00359048
-0.0130391 -0.00283459 0.00774788
-0.0124722 -0.00264562 0.0115273
-0.0128501 -0.00075589 0.0062361
-0.0130391 -0.000944863 0.00907068
-0.0109604 -0.000188973 -0.00377945
-0.0132281 -0.00264562 0.0177634
-0.013606 -0.00472431 0.0266451
-0.0126612 -0.00151178 -0.00132281
-0.0291018 0.0147399 -0.020976
-0.0234326 0.0119053 -0.0247554
-0.000188973 -0.00774788 -0.00850377
0.0147399 -0.0228657 0.00907068
0.00774788 -0.0188973 0.0122832
0.00585815 -0.0100155 -0.0128501
-0.0130391 -0.000944863 0.0041574
-0.0117163 0.00151178 0.000944863
-0.0122832 0.0115273 -0.0102045
-0.0145509 0.0190862 -0.0177634
-0.0156847 0.013984 -0.0122832
-0.0149288 0.00377945 -0.00113384
-0.0151178 0.0325033 -0.0332592
0.0340151 -0.0330702 0.00850377
0.00529123 0.0160627 -0.0291018
-0.00925966 -0.0041574 0.00850377
0.00850377 -0.00736993 0.0105825
0.0221098 -0.00359048 0.00359048
0.0151178 0.00340151 -0.00907068
0.0164406 -0.0126612 0.0215429
0.0394953 -0.013984 0.0266451
0.0538572 -0.00982658 0.0198421
0.0447865 -0.00510226 0.00812582
0.0168186 -0.0020787 -0.00548021
-0.0190862 -0.00170075 0.0119053
0.0111494 0.0376055 -0.0291018
-0.0143619 -0.00302356 -0.000566918
-0.00944863 0.00188973 -0.00283459
-0.0461093 0.0296687 -0.0323143
-0.0362827 0.0239995 -0.0394953
0.0313695 -0.0372276 0.020409
0.0188973 -0.0300466 0.0255113
-0.0102045 -0.00359048 0.00642507
-0.0111494 0.0141729 -0.0132281
-0.0171965 0.0185193 -0.0170075
-0.0160627 0.000377945 0.00264562
-0.0188973 0.0260782 -0.00982658
-0.0257003 0.0650066 -0.0440306
-0.000944863 0.0162516 -0.0606602
0.0357158 -0.0317474 0.00302356
0.0251334 -0.0417629 0.0393063
0.0606602 -0.0417629 -0.00264562
0.00585815 -0.0160627 0.0260782
0.0462983 -0.0183303 0.0360938
0.0721875 -0.0103935 0.0239995
0.0555579 -0.00188973 0.00264562
0.00377945 0.0470542 -0.0427078
Vibration 6
0.00831479 -0.00850377 -0.00718096
0.00793685 -0.0075589 -0.0117163
0.00566918 -0.00604712 -0.00925966
0.00302356 -0.0075589 -0.0113384
0.00340151 -0.00869274 -0.0102045
0.00585815 -0.00982658 -0.00491329
0.00283459 -0.00831479 -0.0128501
0.00529123 -0.0149288 0.00566918
0.00491329 -0.0202201 0.0151178
0.00453534 -0.00680301 -0.00245664
-0.0355268 0.00718096 -0.0258892
-0.0491329 0.0143619 -0.0249444
-0.020409 0.0075589 0
0.0234326 -0.00774788 0.0258892
0.0351489 -0.0141729 0.0243775
-0.0408181 0.0173855 -0.00434637
0.00548021 0.00302356 -0.000188973
-0.00831479 0.000188973 0.0132281
-0.00888171 0.0156847 0.0221098
0.00472431 0.034204 0.0170075
0.0188973 0.0359048 0.00491329
0.0188973 0.0200311 -0.00359048
0.00434637 0.0548021 0.0266451
-0.0185193 0.0153068 0.0192752
0.0187083 -0.0213539 0.0215429
0 -0.00642507 -0.0119053
0 -0.0062361 -0.0119053
0.00264562 -0.00377945 -0.00699199
0.00699199 -0.00699199 -0.000188973
-0.00510226 -0.00661404 -0.0160627
-0.00736993 -0.00396842 -0.0154958
-0.00434637 -0.00132281 -0.0102045
0.000566918 -0.00113384 -0.00585815
0.00396842 0.00151178 -0.00888171
-0.000188973 -0.00604712 -0.0119053
0.0113384 -0.0449755 0.0219208
0.00907068 -0.00699199 -0.0160627
0.00264562 -0.00850377 -0.0130391
-0.0572587 0.0128501 -0.0447865
-0.0818251 0.0253223 -0.0436527
0.0476211 -0.0141729 0.0466762
0.0678412 -0.0243775 0.0427078
-0.0192752 -0.0132281 0.0160627
-0.0196532 0.013795 0.0319364
0.0292908 0.0495108 0.00170075
0.0298577 0.020976 -0.0128501
-0.0147399 0.0776677 -0.0185193
0.0170075 0.0109604 0.0406291
0.0102045 0.0956201 0.068975
-0.0457314 0.0272121 0.00831479
-0.00907068 0.0300466 0.0591484
0.0117163 -0.0115273 0.00548021
-0.00736993 -0.00850377 -0.0198421
-0.0113384 -0.0041574 -0.0190862
-0.00585815 0.000566918 -0.00982658
0.00283459 0.00075589 -0.00188973
0.0202201 -0.055369 0.0364717
Vibration 7
0.00188973 0.000566918 -0.00226767
0.00188973 0.000377945 -0.00170075
0.00170075 0.000566918 -0.00075589
0.00151178 0.000377945 -0.0020787
0.00151178 0.000377945 -0.00245664
0.00170075 0.000566918 -0.00264562
0.00170075 0.000566918 -0.0020787
0.00170075 -0.000188973 -0.00283459
0.00170075 -0.00075589 -0.00321253
0.00113384 0.000944863 -0.00151178
-0.0062361 0.00340151 -0.00566918
-0.00774788 0.0041574 -0.00472431
-0.00151178 0.00264562 0.000566918
0.00585815 0.000188973 0.00491329
0.00699199 -0.000377945 0.00359048
-0.00396842 0.00359048 0.00113384
0.00170075 0.00170075 0.00302356
-0.00188973 -0.0020787 0.00812582
-0.000944863 -0.00075589 0.0132281
0.00170075 0.00491329 0.0122832
0.00434637 0.00774788 0.00585815
0.00510226 0.00604712 0.00132281
0.00188973 -0.00529123 0.00377945
0.00283459 0.00170075 0.0075589
0.00548021 -0.00642507 0.00642507
0.000566918 0.00113384 -0.00302356
-0.00151178 -0.000188973 -0.0041574
-0.00283459 -0.000566918 -0.00377945
-0.000188973 -0.00075589 -0.00113384
-0.0041574 -0.000944863 -0.00585815
-0.00869274 -0.00226767 -0.0075589
-0.0102045 -0.00283459 -0.00736993
-0.00718096 -0.00188973 -0.00548021
-0.00151178 0.00359048 -0.00396842
0.0020787 0.00151178 -0.00377945
0.00283459 -0.0153068 0.00642507
0.00188973 0.000377945 -0.0020787
0.00170075 0.000566918 -0.00321253
-0.0107714 0.00472431 -0.0096376
-0.013606 0.00604712 -0.00793685
0.0105825 -0.000944863 0.00888171
0.0126612 -0.00188973 0.00661404
-0.0041574 -0.00510226 0.00888171
-0.00566918 -0.00302356 0.0188973
0.00925966 0.0124722 0.00566918
0.00736993 0.00869274 -0.00283459
0.0379835 -0.166107 0.440873
-0.034771 0.447676 -0.100344
0.00302356 -0.327678 -0.360371
-0.000188973 0.00283459 0.00736993
0.00264562 0.00226767 0.0154958
0.0102045 -0.000944863 0.00453534
-0.00302356 -0.000377945 -0.00585815
-0.0109604 -0.00302356 -0.00907068
-0.013795 -0.0041574 -0.00888171
-0.00831479 -0.00226767 -0.00510226
0.00718096 -0.0196532 0.0115273
Vibration 8
0.0128501 -0.0119053 -0.0171965
0.0128501 -0.00888171 -0.020976
0.0096376 -0.00699199 -0.0151178
0.00774788 -0.00774788 -0.00850377
0.00718096 -0.0117163 -0.00680301
0.0105825 -0.013606 -0.0154958
0.00264562 -0.0141729 0.00774788
0.0103935 -0.0171965 -0.0215429
0.0103935 -0.020598 -0.0285349
0.0102045 -0.0107714 -0.00850377
-0.00907068 -0.0141729 -0.0100155
-0.0219208 -0.00774788 -0.0020787
-0.0143619 0.00264562 0.00774788
0.00831479 0.00453534 0.0124722
0.020409 -0.00226767 0.0041574
-0.0325033 0.0102045 0.0128501
0.0096376 -0.00434637 -0.0105825
0.00472431 -0.0241885 0.0109604
0.00491329 -0.0255113 0.020976
0.0100155 -0.00548021 0.00850377
0.0147399 0.0168186 -0.0151178
0.0143619 0.0168186 -0.0243775
0.0103935 -0.00774788 0.020598
-0.0325033 0.0262672 0.0192752
-0.0428968 0.0332592 -0.041385
0.00736993 -0.00982658 0.00718096
0.000566918 0.00321253 0.0119053
-0.0107714 -0.000377945 0.0156847
-0.0141729 -0.00321253 0.0147399
0.00869274 0.0147399 0.0102045
0.00359048 0.020598 0.0120942
-0.00982658 0.0156847 0.0145509
-0.0162516 0.00491329 0.0164406
-0.00283459 -0.0323143 0.0508336
0.00718096 -0.0188973 0.00982658
-0.00188973 0.0863605 -0.0517785
0.0151178 -0.00774788 -0.0270231
0.00113384 -0.0156847 0.0141729
-0.0149288 -0.0219208 -0.0181414
-0.0379835 -0.0100155 -0.00396842
0.0162516 0.0113384 0.0219208
0.0376055 0 0.00699199
0.000377945 -0.0387394 0.0194642
0.00132281 -0.0419519 0.0385504
0.0183303 0.0334482 -0.0257003
0.0177634 0.0328812 -0.041574
0.00925966 -0.0126612 0.0368497
0.0179524 0.00510226 0.0211649
0.00359048 -0.0175745 0.013606
-0.0527234 0.0321253 0.0192752
-0.020787 0.041385 0.0268341
-0.0260782 0.0168186 0.0160627
0.0188973 0.0183303 0.00831479
0.00982658 0.0292908 0.0113384
-0.0149288 0.0202201 0.0154958
-0.0258892 0.00170075 0.0185193
-0.0226767 0.112817 -0.089762
Vibration 9
-0.0096376 0.0020787 -0.00793685
-0.00888171 -0.00264562 -0.0221098
-0.00566918 -0.00529123 -0.0173855
-0.000944863 -0.00283459 -0.00982658
0.000566918 0.00264562 0.0020787
-0.00453534 0.00548021 0.00869274
0.00774788 0.00377945 0.00718096
-0.00472431 0.0151178 0.0372276
-0.00472431 0.0257003 0.0646286
-0.0102045 0.00264562 -0.00718096
0.0164406 -0.0120942 0.0130391
0.0249444 -0.0166296 0.0179524
0.00453534 -0.00680301 0.00170075
-0.0257003 0.00907068 -0.020976
-0.0321253 0.0126612 -0.0247554
0.0183303 -0.013984 0.0109604
-0.00548021 -0.00396842 -0.0120942
-0.0145509 -0.0493218 0.0355268
-0.0145509 -0.0445975 0.0478101
-0.00699199 0.0102045 0.00888171
0.00132281 0.0593374 -0.041196
0.000944863 0.0504557 -0.0508336
-0.00680301 0.0187083 0.0222988
0.00321253 -0.00793685 -0.00302356
0.00510226 -0.00548021 -0.00510226
0.00566918 -0.00170075 -0.00359048
0.00510226 -0.00151178 -0.00377945
0.00264562 -0.00340151 -0.00718096
0.00188973 -0.00245664 -0.00888171
0.00925966 -0.000377945 -0.000944863
0.00982658 -0.00226767 -0.00170075
0.00604712 -0.00472431 -0.00548021
0.00283459 -0.00529123 -0.00812582
0.00075589 0.000377945 -0.0122832
0.0147399 -0.0100155 -0.00472431
0.00377945 -0.0109604 -0.00510226
-0.0107714 -0.00396842 -0.034393
0.00982658 0.00699199 0.0109604
0.0317474 -0.0202201 0.0249444
0.0476211 -0.0281569 0.034393
-0.0432747 0.0181414 -0.034771
-0.0538572 0.0226767 -0.0398732
-0.0224877 -0.0865495 0.0599043
-0.020409 -0.082581 0.0859825
0.00736993 0.103368 -0.0727545
0.00680301 0.0865495 -0.0876833
-0.0171965 0.0221098 0.0255113
0.00491329 0.020787 0.0268341
-0.00850377 0.0224877 0.027401
0.0228657 -0.0185193 0.0105825
-0.00396842 -0.0190862 -0.0349599
-0.0177634 0.0171965 0.00680301
0.0122832 0.00170075 0.0020787
0.0130391 -0.00151178 0.000944863
0.0062361 -0.0062361 -0.00604712
0.000377945 -0.00699199 -0.0107714
0.00680301 -0.013795 -0.00188973
Vibration 10
0.00472431 -0.00982658 0.00831479
0.00472431 -0.000944863 -0.00566918
-0.00170075 0.00283459 -0.0171965
-0.00831479 -0.000944863 -0.0258892
-0.00869274 -0.00850377 -0.0145509
-0.00188973 -0.013795 0.0117163
-0.0147399 -0.00850377 -0.0306136
-0.00283459 -0.0221098 0.0504557
-0.00396842 -0.0296687 0.0878723
0.0117163 -0.013795 0.0153068
0.0179524 -0.0156847 0.0185193
0.0145509 -0.013606 0.0130391
0.00340151 -0.00982658 0.00377945
0.00340151 -0.0119053 0.00548021
0.00793685 -0.0143619 0.0117163
-0.00604712 -0.00434637 -0.00604712
-0.00188973 0.00642507 -0.0147399
-0.0062361 0.020409 -0.0238105
-0.00566918 0.0132281 -0.0113384
-0.000188973 -0.00944863 0.0111494
0.0041574 -0.020598 0.0177634
0.00359048 -0.0120942 0.00453534
0.000566918 -0.0238105 0.0285349
-0.0396842 0.013606 -0.0355268
-0.00359048 0.0143619 0.000188973
-0.0143619 -0.00340151 -0.0272121
-0.00680301 0.00661404 -0.020976
0.0105825 0.0181414 -0.00377945
0.00680301 0.0096376 -0.000377945
-0.0100155 0.0103935 -0.0264562
0.00944863 0.0292908 -0.0128501
0.0321253 0.0438416 0.00642507
0.0313695 0.0374166 0.0103935
0.00925966 -0.000188973 0.00188973
-0.0221098 -0.00132281 -0.0241885
-0.00302356 0.0190862 0.000377945
0.0103935 0.00226767 -0.00472431
-0.0166296 -0.0111494 -0.0234326
0.0243775 -0.0177634 0.0238105
0.0185193 -0.0141729 0.0145509
-0.00075589 -0.0111494 0.00188973
0.00718096 -0.0160627 0.0132281
-0.00982658 0.0349599 -0.0381725
-0.0096376 0.0238105 -0.0177634
0.00831479 -0.0366607 0.0340151
0.00736993 -0.020976 0.00982658
0.00831479 -0.0359048 0.054991
0.00831479 -0.00510226 0.0279679
-0.0149288 -0.0444086 0.0151178
-0.0527234 0.0221098 -0.0489439
-0.0228657 0.0330702 -0.0542351
-0.0680301 -0.00132281 -0.0251334
-0.0272121 -0.000566918 -0.0410071
0.00793685 0.0330702 -0.0170075
0.0500777 0.0597153 0.0181414
0.0474321 0.0478101 0.0245664
-0.0111494 0.0232436 -0.000188973
Vibration 11
-0.00529123 -0.00226767 -0.0262672
-0.00434637 -0.00812582 -0.0326923
0.00264562 -0.0124722 -0.0177634
0.00736993 -0.00831479 -0.0103935
0.00812582 -0.00283459 -0.00321253
0.00151178 0.00132281 -0.0075589
0.0122832 -0.00377945 0.0109604
0.00151178 0.0160627 0.0175745
0.00188973 0.0332592 0.0430858
-0.0128501 0.0020787 -0.027401
-0.00548021 -0.0115273 -0.0130391
-0.00642507 -0.0115273 -0.00283459
-0.0151178 0.00151178 -0.00718096
-0.0296687 0.0188973 -0.0266451
-0.0279679 0.0175745 -0.0364717
-0.00869274 -0.00321253 0.00944863
0.00302356 -0.0130391 -0.00377945
-0.00982658 0.020409 -0.0230547
-0.0105825 0.0398732 -0.0188973
0.00377945 0.0190862 0.00888171
0.0185193 -0.0255113 0.0377945
0.0187083 -0.0400622 0.0302356
0.00302356 0.0459203 0.00736993
0.0173855 -0.00944863 0.0355268
-0.0119053 -0.00453534 -0.00264562
0.0166296 -0.0126612 0.000566918
0.00888171 -0.00491329 0.00245664
-0.00226767 -0.00869274 0.00585815
-0.00340151 -0.0132281 0.00869274
0.013606 0.00377945 0.000188973
0.00566918 0.00774788 0.000188973
-0.00774788 0.00283459 0.00226767
-0.0113384 -0.00548021 0.00491329
-0.000377945 -0.0211649 0.0181414
0.0234326 -0.0185193 -0.000188973
-0.00321253 0.00718096 -0.00472431
-0.0096376 -0.0113384 -0.0440306
0.0130391 -0.0020787 0.0160627
0.00226767 -0.0230547 -0.00925966
0.00151178 -0.0224877 0.00944863
-0.041574 0.0326923 -0.0336371
-0.0370386 0.0287238 -0.0489439
-0.0188973 0.0319364 -0.0389284
-0.0230547 0.0712427 -0.0376055
0.0302356 -0.0472432 0.0642507
0.0311805 -0.0708647 0.048566
-0.0126612 0.047999 0.0198421
0.00340151 0.0667073 0.00340151
0.0177634 0.0438416 -0.00434637
0.0364717 -0.0245664 0.061794
-0.00075589 -0.0319364 0.0351489
0.0360938 0.0222988 0.0300466
0.0228657 0.00718096 -0.00113384
0.00944863 0.0147399 -0.00151178
-0.0151178 0.00529123 0.00170075
-0.0211649 -0.00907068 0.00661404
-0.0096376 0.013606 -0.0122832
Vibration 12
0.00132281 0.00283459 -0.0107714
0.00113384 0.00869274 -0.0170075
-0.00377945 0.0117163 -0.0107714
-0.00793685 0.00925966 -0.00132281
-0.00831479 0.00283459 -0.00434637
-0.00340151 -0.000188973 -0.00491329
-0.0156847 0.00170075 -0.00283459
-0.00396842 -0.00699199 0.00566918
-0.00453534 -0.013606 0.0164406
0.00642507 0 -0.00548021
0.00510226 -0.00264562 -0.00302356
0.00585815 -0.00340151 0.00226767
0.00774788 -0.000566918 0.00472431
0.0117163 0.000944863 0.00453534
0.0113384 0.000944863 -0.000377945
0.00548021 0 0.00869274
-0.00377945 0.0126612 -0.0105825
-0.00264562 0.0181414 -0.0164406
-0.00226767 0.0109604 -0.0124722
-0.00264562 -0.00340151 -0.00132281
-0.00396842 -0.0062361 0.00226767
-0.0041574 0.00226767 -0.00283459
-0.0020787 -0.0173855 0.00793685
-0.0154958 0.0170075 -0.00699199
-0.0151178 -0.0228657 -0.00642507
-0.0147399 0.0103935 0.013795
-0.000566918 0.0158737 0.0194642
-0.0396842 -0.00699199 -0.00661404
-0.0434637 -0.00888171 -0.00831479
0.0531013 0.041385 0.0493218
0.0583925 0.0389284 0.0496998
0.00188973 0.00661404 0.0153068
-0.0476211 -0.0160627 -0.0126612
-0.0436527 0.000188973 -0.00321253
-0.0304246 0.00264562 0.0222988
0.121131 -0.0814472 -0.0644397
0.00491329 0.0107714 -0.0239995
-0.020409 -0.0041574 0.000944863
0.00245664 -0.0041574 -0.00604712
0.00453534 -0.00566918 0.00396842
0.0154958 0.00170075 0.00831479
0.0145509 0.0020787 -0.000377945
-0.00170075 0.0260782 -0.0222988
-0.00151178 0.0151178 -0.0166296
-0.00434637 -0.0158737 0.0096376
-0.00510226 0 -0.000188973
0.00566918 -0.0217318 0.0105825
0.0020787 -0.0213539 0.0103935
-0.013795 -0.0219208 0.0102045
-0.0239995 0.0202201 -0.00944863
-0.00472431 0.0291018 -0.0222988
-0.0325033 0.0134171 -0.000377945
0.0907068 0.0633058 0.0729434
0.10488 0.0610381 0.0752111
-0.00151178 -0.000188973 0.0113384
-0.0890061 -0.0398732 -0.0372276
0.152312 -0.096565 -0.0655735
Vibration 13
-0.0041574 -0.00245664 0.041574
-0.00359048 -0.00736993 0.0559359
0.00075589 -0.0103935 0.0202201
0.00566918 -0.00774788 -0.0239995
0.00680301 -0.00264562 -0.00680301
0.000944863 0.000188973 0.0122832
0.0124722 -0.0020787 -0.00604712
0.00151178 0.0075589 -0.00434637
0.00226767 0.0149288 -0.0215429
-0.00907068 -0.000188973 0.0360938
-0.00226767 0.0111494 0.0270231
-0.0062361 0.0145509 0.0041574
-0.0160627 0.00396842 -0.00774788
-0.0236216 -0.00774788 0.000377945
-0.020598 -0.00869274 0.0219208
-0.0185193 0.00831479 -0.034582
0.00075589 -0.013606 0.0192752
0.00245664 -0.0190862 0.0226767
0.0020787 -0.0134171 0.0147399
-0.000944863 -0.000188973 0.00170075
-0.00283459 0.000188973 0.00283459
-0.00226767 -0.00718096 0.0120942
-0.00170075 0.0160627 -0.0153068
0.0294797 -0.0396842 -0.0020787
-0.0255113 -0.00529123 -0.0020787
0.0126612 -0.00869274 -0.0260782
0 0.00510226 -0.0226767
-0.0096376 0.00510226 -0.0075589
-0.0154958 -0.0109604 0.000377945
0.00888171 0.0241885 -0.0285349
0.013795 0.0474321 -0.0164406
0.00718096 0.0491329 -0.000188973
-0.00680301 0.0270231 0.00340151
-0.0111494 -0.0255113 0.00907068
0.0298577 -0.0162516 -0.0302356
0.0221098 -0.0141729 -0.0213539
-0.00718096 -0.00850377 0.0871164
0.0143619 0.00075589 -0.0153068
0.00718096 0.0183303 0.0379835
-0.00151178 0.0241885 -0.00377945
-0.0330702 -0.0149288 -0.0105825
-0.0283459 -0.0166296 0.0268341
0.00377945 -0.0253223 0.0287238
0.00396842 -0.0171965 0.0166296
-0.00472431 0.00736993 -0.00453534
-0.00434637 -0.0062361 0.0128501
-0.00944863 0.0213539 -0.0215429
-0.0111494 0.0192752 -0.0198421
0.0151178 0.0221098 -0.0190862
0.0423299 -0.0398732 -0.0124722
0.00869274 -0.0616051 0.0464873
0.0710537 -0.0508336 -0.0192752
0.0115273 0.0221098 -0.0396842
0.0236216 0.0644397 -0.0202201
0.0126612 0.0672742 0.0096376
-0.0143619 0.0270231 0.0154958
0.0187083 -0.0113384 -0.0241885
Vibration 14
-0.0185193 0.00774788 -0.00396842
-0.0179524 -0.00396842 -0.00113384
-0.00774788 -0.0109604 -0.0041574
0.00151178 -0.00510226 -0.0158737
0.00302356 0.00604712 -0.0062361
-0.00869274 0.0126612 -0.00699199
0.0149288 0.00680301 0.00925966
-0.00793685 0.0298577 -0.00869274
-0.00699199 0.0496998 -0.0119053
-0.0164406 0.0062361 -0.000566918
-0.0279679 0.0181414 -0.0149288
-0.00340151 0.00510226 -0.00245664
0.0304246 -0.0181414 0.0224877
0.0398732 -0.0287238 0.034393
0.0158737 -0.0151178 0.0226767
0.061983 -0.0351489 0.0400622
-0.00774788 -0.0190862 0.00548021
-0.013606 -0.0153068 0.00680301
-0.0143619 -0.00321253 0.00529123
-0.00925966 0.00340151 0.00377945
-0.00283459 -0.0120942 0.0126612
-0.00245664 -0.0230547 0.0132281
-0.0103935 0.0308025 -0.00907068
-0.0478101 0.0200311 -0.0576366
-0.00359048 -0.0020787 -0.00113384
0.0158737 -0.00718096 -0.00585815
0.00831479 0.000377945 -0.0041574
-0.000944863 -0.00245664 -0.000188973
0 -0.00566918 0.00321253
0.0124722 0.00850377 -0.00642507
0.00510226 0.0126612 -0.0062361
-0.00718096 0.00831479 -0.0041574
-0.00982658 0.000944863 -0.000944863
0.00132281 -0.00869274 0.00850377
0.0321253 -0.0194642 -0.00831479
-0.00510226 0.00377945 -0.000188973
-0.0262672 -0.00888171 0.00321253
0.0198421 0.013606 0.0062361
-0.0555579 0.0377945 -0.034771
-0.0111494 0.0128501 -0.0117163
0.068975 -0.0496998 0.0555579
0.0238105 -0.0228657 0.0319364
-0.0177634 -0.0192752 0.00718096
-0.0190862 0.00302356 0.00340151
0.0020787 -0.0132281 0.0171965
0.00226767 -0.0321253 0.0179524
-0.0258892 0.0370386 -0.00907068
-0.0164406 0.0425188 -0.013795
0.0103935 0.0362827 -0.0160627
-0.0574477 0.0298577 -0.0769118
-0.0119053 0.0576366 -0.146265
-0.149099 0.0111494 -0.0175745
0.020409 0.0115273 -0.00736993
0.00850377 0.0194642 -0.00812582
-0.0141729 0.0107714 -0.00453534
-0.0183303 -0.0020787 0.00113384
-0.00793685 0.0062361 -0.00245664
Vibration 15
-0.000188973 0.0041574 -0.00170075
0 0.00377945 -0.0151178
-0.000188973 0.00396842 -0.00604712
-0.00434637 0.00188973 0.0230547
-0.00264562 0.00170075 0.0445975
-0.00226767 0.00302356 0.0215429
0.00302356 0.00113384 0.0712427
-0.00188973 0.00510226 -0.00226767
-0.00113384 0.00925966 -0.0328812
-0.00151178 0.00548021 -0.00831479
-0.00434637 0.00566918 -0.00888171
-0.00188973 0.00396842 -0.0041574
0.00377945 0.00340151 0.000944863
0.0020787 0.00604712 -0.00188973
-0.000188973 0.00680301 -0.0062361
0.0120942 -0.00170075 0.0119053
-0.000566918 0.0134171 -0.0175745
-0.0041574 0.020976 -0.020787
-0.0041574 0.0194642 -0.0124722
0.00075589 0.00793685 0.00075589
0.00434637 0.0126612 -0.00642507
0.00377945 0.0156847 -0.0158737
0.00188973 -0.0147399 0.0287238
-0.00302356 0.0105825 0.000566918
-0.0474321 -0.0107714 0.00075589
-0.00472431 -0.0020787 0.00472431
-0.0300466 -0.0192752 -0.0103935
0.00302356 -0.00264562 0.00245664
-0.0202201 -0.0198421 -0.00548021