[Molden Format]
[FREQ]
-860.8
5.6
17.2
21.5
25.4
27.1
27.9
31.5
37.1
45.5
62.3
80.9
89.4
104.9
110.9
120.2
134.4
137.7
154.6
165.9
177.5
182.5
217.4
231.4
248.1
257.3
263.0
293.2
304.9
310.3
323.2
337.4
350.6
352.6
356.3
377.9
402.2
415.9
433.5
439.2
446.0
461.3
480.1
485.4
497.9
508.6
520.3
543.1
547.5
568.6
572.1
588.8
602.4
613.0
616.6
628.0
639.0
646.7
648.5
664.6
671.8
693.5
717.6
722.7
742.1
750.1
767.4
803.6
818.1
842.5
847.3
859.2
880.9
882.7
897.2
901.0
921.7
966.2
973.0
1002.5
1007.4
1008.9
1010.3
1017.0
1017.2
1030.4
1033.2
1070.8
1075.8
1080.4
1089.1
1109.5
1122.1
1126.6
1151.5
1178.9
1182.5
1182.8
1196.8
1209.4
1217.1
1225.1
1230.2
1259.7
1265.6
1271.1
1273.8
1284.1
1287.0
1296.1
1301.8
1313.3
1323.8
1330.1
1339.0
1345.5
1348.7
1354.4
1355.2
1364.5
1380.3
1393.5
1413.5
1426.8
1487.2
1498.8
1509.9
1522.8
1529.2
1552.9
1555.9
1597.2
1600.8
1646.1
1672.0
1699.0
1699.8
1708.1
1709.3
1726.9
1730.3
1803.1
1845.6
1895.0
2453.0
2651.6
2654.5
2667.0
2673.4
2739.8
2742.8
2744.6
2745.2
2745.7
2746.8
2748.8
2757.9
2763.1
2764.3
2766.3
2766.3
2770.3
2779.6
2781.3
4281.5
       
[FR-COORD]
C -1.42051 -4.32823 -0.408748
C 1.21698 -4.32823 -0.408748
C 2.51334 -2.01577 -0.408748
N 1.28482 0.217885 -0.421409
C -1.27538 0.243775 -0.438038
C -2.72328 -2.01483 -0.423677
N -2.55718 2.54867 -0.56106
C -5.39649 -1.91883 -0.451645
N -7.58366 -1.85779 -0.466762
C -2.77828 -6.74141 -0.400055
C -2.32758 -8.49734 -2.33268
C -3.59294 -10.7875 -2.35668
C -5.31977 -11.3159 -0.407425
C -5.78105 -9.5966 1.53767
C -4.49887 -7.29944 1.51972
O -6.41524 -13.6213 -0.6529
C 5.2901 -1.88122 -0.385504
C 6.68509 -3.51432 1.14971
C 9.30936 -3.3622 1.18259
C 10.5575 -1.58076 -0.315962
C 9.15686 0.0536682 -1.84759
C 6.53335 -0.0907068 -1.87858
C 13.37 -1.43751 -0.305002
C -8.29476 -14.2905 1.14593
C -1.64973 4.73679 -0.0534792
C -3.06287 7.18001 -0.316718
C -1.71512 9.36454 0.394764
C 0.952044 9.34243 1.0607
C 2.0409 7.03677 1.22964
C -2.77355 11.7375 0.522887
C -1.82075 14.0282 0.956957
C 0.937871 13.9758 1.1276
C 2.21627 11.7601 1.28048
O 4.48923 6.57965 1.70434
O -5.2833 7.27828 -0.991728
O 0.779134 4.81049 0.853778
H 2.25595 -6.10193 -0.410071
H -6.10722 10.4439 -0.224122
H -0.986815 -8.04494 -3.83388
H -3.28642 -12.1695 -3.84503
H -7.11614 -10.0067 3.03736
H -4.84941 -5.92675 3.02054
H 5.72077 -4.89382 2.33759
H 10.3914 -4.63418 2.38087
H 10.1193 1.44167 -3.01922
H 5.43221 1.19034 -3.06532
H 14.0611 0.507391 -0.535737
H 14.1711 -2.55793 -1.86554
H 14.1998 -2.16695 1.45263
H -8.89154 -16.1634 0.477156
H -9.88138 -12.9635 1.08697
H -7.48426 -14.4248 3.04321
H -5.60342 11.7749 0.416496
H -2.8172 15.7771 1.25402
H 1.88368 15.7932 1.21415
H 4.26001 11.7118 1.55524
H 4.8394 4.7143 1.5235

[FR-NORM-COORD]
Vibration 1
0 0.000944863 -0.000188973
0.000188973 -0.000188973 0
-0.00075589 0.000188973 0
0.00075589 0.000377945 0.000377945
-0.00132281 0.00472431 -0.000377945
0 0 -0.000188973
-0.00302356 -0.0020787 0.00113384
0.000377945 0.000188973 0
0 0 0
0 0.000188973 0
0 0.000188973 0.000188973
-0.000188973 0 0
0 0.000377945 0
0 0 0
0.000188973 0 0
-0.000188973 -0.000188973 0
0 0 0
0 0 0
0 0 0
-0.000188973 0 0
0 0 0
0 -0.000188973 0
0.000188973 0 0
0 0 0
-0.00453534 0.0102045 -0.00396842
0.0451645 0.00812582 0.0304246
0.0262672 -0.0213539 -0.000188973
0.00548021 0 -0.020787
0.0041574 -0.000566918 -0.00699199
-0.132281 0.00170075 -0.00396842
0.0141729 -0.0228657 -0.0156847
-0.00812582 -0.0041574 0.0283459
0 -0.00283459 -0.000944863
0.00359048 -0.00188973 0.00377945
-0.0224877 0.0644397 0.0158737
-0.00377945 0.00188973 -0.0041574
-0.000377945 0.000566918 0
0.413283 -0.462794 -0.0818251
0.00151178 0 0.000944863
0 0.000188973 0.000188973
0 0 -0.000188973
0 0.000377945 -0.000377945
-0.000188973 0.000188973 -0.000188973
0 0.000188973 -0.000188973
0 0.000188973 0.000566918
-0.000566918 0.00075589 0.000944863
-0.000188973 0 0.000188973
0 0 0
-0.000188973 0 0
-0.000188973 0.000188973 0.000188973
0.000188973 0.000188973 0
0 0.000188973 0
0.572587 -0.223366 -0.152501
0.0120942 0.00566918 -0.130391
0.0020787 -0.00907068 0.034771
0.00340151 -0.00113384 -0.0224877
-0.00132281 0 0.0102045
Vibration 2
0.00472431 0.0020787 -0.00793685
0.00472431 0 -0.00925966
0.00680301 -0.000944863 -0.0181414
0.00869274 0 -0.0264562
0.00869274 0.00170075 -0.0268341
0.00661404 0.00302356 -0.0170075
0.0115273 0.00245664 -0.041574
0.00680301 0.00548021 -0.0158737
0.00680301 0.00774788 -0.0145509
0.00264562 0.00321253 0.00283459
0.00075589 -0.00566918 0.0103935
-0.00151178 -0.00453534 0.020598
-0.00188973 0.00566918 0.0230547
0.000188973 0.0145509 0.0156847
0.00264562 0.0132281 0.00548021
-0.0041574 0.00585815 0.0332592
0.00680301 -0.00377945 -0.0183303
0.00566918 -0.00604712 -0.0196532
0.00585815 -0.0096376 -0.020976
0.00736993 -0.0105825 -0.020787
0.00888171 -0.00774788 -0.0190862
0.00850377 -0.00434637 -0.0177634
0.00774788 -0.0145509 -0.0224877
-0.00434637 0.0153068 0.0368497
0.00359048 0.000944863 -0.0221098
0.00831479 0.00188973 -0.0394953
-0.00472431 -0.000566918 -0.00793685
-0.0160627 -0.00264562 0.0377945
-0.0185193 -0.00302356 0.0478101
-0.00718096 -0.00113384 -0.0187083
-0.0147399 -0.00245664 0.00548021
-0.0177634 -0.00283459 0.0536682
-0.0202201 -0.00321253 0.0682191
-0.0258892 -0.00340151 0.0856046
0.020409 0.00377945 -0.0791795
-0.0120942 -0.0020787 0.020787
0.00321253 -0.00075589 -0.00302356
0.00661404 0.00151178 -0.082959
0.000944863 -0.0134171 0.00812582
-0.00302356 -0.0113384 0.0266451
0 0.0224877 0.0177634
0.0041574 0.0200311 -0.000377945
0.00472431 -0.00548021 -0.0198421
0.00472431 -0.0115273 -0.0221098
0.00982658 -0.00831479 -0.0187083
0.0096376 -0.00170075 -0.0158737
0.0102045 -0.0154958 -0.0224877
0.00510226 -0.0153068 -0.0232436
0.0075589 -0.0160627 -0.0230547
-0.00585815 0.0128501 0.0453534
-0.00321253 0.0162516 0.0311805
-0.00396842 0.0232436 0.0372276
-0.00510226 -0.000944863 -0.0685971
-0.0202201 -0.00340151 -0.00642507
-0.0194642 -0.00302356 0.0769118
-0.0249444 -0.00396842 0.103746
-0.0200311 -0.00113384 0.0782347
Vibration 3
-0.00340151 -0.00075589 0.0075589
-0.00340151 0.00075589 0
-0.00453534 0.00151178 0.00472431
-0.00661404 0.000566918 0.0134171
-0.00661404 -0.00075589 0.0181414
-0.00510226 -0.00151178 0.0194642
-0.00585815 -0.000566918 0.013795
-0.00529123 -0.00340151 0.0325033
-0.00548021 -0.00472431 0.0447865
-0.00151178 -0.00170075 0.000566918
-0.0105825 0.0111494 -0.0132281
-0.00869274 0.0103935 -0.0213539
0.00245664 -0.00377945 -0.0153068
0.0115273 -0.0168186 -0.00151178
0.00925966 -0.0154958 0.0062361
0.00321253 -0.00321253 -0.0243775
-0.00472431 0.00491329 -0.000188973
0.0020787 -0.0120942 -0.0241885
0.00170075 -0.00774788 -0.0285349
-0.00491329 0.013795 -0.00850377
-0.0113384 0.0306136 0.0154958
-0.0111494 0.0258892 0.0194642
-0.00510226 0.0175745 -0.0122832
0.013795 -0.0168186 -0.0183303
-0.00850377 -0.00170075 0.0224877
0.00226767 0.00188973 -0.000944863
0.00869274 0.0020787 -0.0141729
0.00434637 -0.00472431 0.00283459
-0.0096376 -0.00869274 0.0376055
0.0198421 0.00888171 -0.0466762
0.0300466 0.00869274 -0.0680301
0.0287238 -0.00396842 -0.0523454
0.0160627 -0.00888171 -0.0187083
-0.0154958 -0.0171965 0.0591484
0.00548021 0.00604712 -0.0117163
-0.0200311 -0.00566918 0.0546131
-0.00264562 0.00132281 -0.0100155
0.0177634 0.0158737 -0.0489439
-0.0190862 0.0221098 -0.0175745
-0.0158737 0.020409 -0.0321253
0.0202201 -0.027779 0.00302356
0.0160627 -0.0253223 0.0168186
0.0075589 -0.0289128 -0.0393063
0.00699199 -0.0211649 -0.0476211
-0.0168186 0.0474321 0.0309915
-0.0160627 0.0387394 0.0379835
-0.00642507 0.0156847 -0.0317474
-0.00510226 0.00302356 -0.00188973
-0.00377945 0.0353379 -0.00548021
0.0111494 -0.0126612 -0.0279679
0.0124722 -0.0175745 -0.000188973
0.0247554 -0.0294797 -0.0239995
0.0219208 0.0217318 -0.0633058
0.0376055 0.0175745 -0.0939194
0.0379835 -0.00793685 -0.068975
0.0143619 -0.0166296 -0.00661404
-0.0217318 -0.0192752 0.0685971
Vibration 4
-0.0119053 0.000944863 -0.0181414
-0.0117163 0.00264562 -0.0156847
-0.013795 0.00359048 -0.0160627
-0.0162516 0.0020787 -0.0177634
-0.0162516 0.000944863 -0.0200311
-0.0143619 -0.000188973 -0.0234326
-0.0147399 0.00264562 -0.0153068
-0.0143619 -0.00283459 -0.0311805
-0.0143619 -0.00510226 -0.0389284
-0.00850377 -0.000944863 -0.0102045
-0.0020787 -0.0103935 -0.000188973
0.0062361 -0.0151178 0.0128501
0.00812582 -0.0103935 0.0156847
-0.000377945 0.000188973 0.00434637
-0.00869274 0.00472431 -0.00869274
0.0187083 -0.0170075 0.0306136
-0.0141729 0.0107714 -0.0102045
-0.0124722 0.0132281 -0.00925966
-0.0134171 0.0264562 0.0020787
-0.0160627 0.0374166 0.0124722
-0.0175745 0.0332592 0.0096376
-0.0168186 0.0196532 -0.00188973
-0.0168186 0.0521564 0.02759
0.0255113 -0.0162516 0.0377945
-0.00774788 -0.00188973 -0.0062361
0.00472431 0.0062361 0.00264562
0.0175745 -0.00302356 0.00718096
0.0181414 -0.0185193 0.00453534
0.00529123 -0.0249444 -0.000566918
0.0304246 0.00245664 0.0143619
0.0436527 -0.00377945 0.0188973
0.0434637 -0.0187083 0.0151178
0.0317474 -0.0260782 0.00831479
0.00302356 -0.0410071 -0.00453534
0.00434637 0.0202201 0.00604712
-0.00850377 -0.0162516 -0.00321253
-0.0105825 0.00340151 -0.0120942
0.0226767 0.0221098 0.0154958
-0.00302356 -0.0143619 -0.00226767
0.0119053 -0.0228657 0.0211649
-0.000188973 0.00472431 0.00566918
-0.0149288 0.0126612 -0.0171965
-0.0103935 0.00529123 -0.0170075
-0.0117163 0.0287238 0.00302356
-0.0198421 0.0408181 0.0168186
-0.0181414 0.0164406 -0.0041574
-0.0239995 0.0502667 -0.00869274
-0.00113384 0.0230547 0.0565028
-0.0255113 0.0929745 0.048566
0.0364717 -0.0247554 0.0515895
0.0170075 -0.0266451 0.0304246
0.0285349 0.0020787 0.0377945
0.0308025 0.0179524 0.0177634
0.0532903 0.000944863 0.0243775
0.0532903 -0.0239995 0.0181414
0.0317474 -0.0377945 0.00548021
-0.00850377 -0.0428968 -0.0120942
Vibration 5
-0.00359048 0.00264562 -0.0126612
-0.00377945 -0.000377945 -0.0175745
-0.00113384 -0.00170075 -0.0107714
0.00075589 -0.000377945 -0.00793685
0.00075589 0.0020787 -0.0075589
-0.00151178 0.00359048 -0.00585815
0.00245664 0.00302356 -0.00661404
-0.00151178 0.00453534 0.00491329
-0.00170075 0.00453534 0.0151178
-0.00566918 0.00377945 -0.0111494
-0.0368497 0.0183303 -0.0313695
-0.0355268 0.0175745 -0.0260782
-0.00132281 0.0020787 0
0.0281569 -0.0109604 0.0187083
0.0253223 -0.00925966 0.0124722
-0.00151178 0.00170075 0.00377945
-0.00113384 -0.00529123 -0.00264562
-0.0075589 -0.0262672 -0.0190862
-0.00736993 -0.0298577 -0.00850377
-0.000566918 -0.0119053 0.0190862
0.00604712 0.00925966 0.0351489
0.0062361 0.0122832 0.0239995
-0.00075589 -0.0113384 0.0294797
0.0389284 -0.0183303 0.0387394
0.00359048 0.00321253 -0.0100155
0.00132281 0.00226767 -0.00699199
-0.00132281 0.00245664 -0.00226767
-0.000944863 0.00434637 -0.00340151
0.00264562 0.00548021 -0.0111494
-0.00453534 0.000566918 0.00434637
-0.00793685 0.00075589 0.0111494
-0.00774788 0.0041574 0.0107714
-0.00453534 0.00548021 0.00377945
0.00359048 0.00812582 -0.013795
0.00170075 0.00113384 -0.00793685
0.00604712 0.00434637 -0.0170075
-0.0062361 -0.00188973 -0.0251334
-0.00283459 -0.00151178 0.000377945
-0.061983 0.0298577 -0.0502667
-0.0599043 0.0281569 -0.0410071
0.0531013 -0.0222988 0.0376055
0.0478101 -0.0187083 0.0262672
-0.0124722 -0.0404401 -0.0393063
-0.0130391 -0.0466762 -0.0211649
0.0119053 0.0232436 0.0565028
0.0113384 0.0279679 0.0360938
-0.00491329 0.00604712 0.159493
0.000944863 0.0946753 -0.0457314
0.00170075 -0.127368 -0.0202201
0.0325033 -0.0160627 0.0381725
0.0325033 -0.0241885 0.0812582
0.0793685 -0.0281569 0.020787
-0.00491329 -0.00302356 0.00491329
-0.0103935 -0.00170075 0.0166296
-0.0103935 0.00529123 0.0162516
-0.00453534 0.00774788 0.00340151
0.00548021 0.00850377 -0.013606
Vibration 6
-0.0105825 0.00888171 -0.000188973
-0.0107714 0.00774788 0.0020787
-0.0103935 0.00718096 0.0020787
-0.00812582 0.00793685 0
-0.00850377 0.00888171 0.000944863
-0.00944863 0.00944863 0.00188973
-0.00661404 0.0100155 -0.000377945
-0.00944863 0.0096376 0.0062361
-0.00944863 0.00925966 0.0109604
-0.00793685 0.00736993 -0.00585815
-0.0107714 0.0179524 -0.0162516
0.00151178 0.0113384 -0.0179524
0.0173855 -0.00642507 -0.00850377
0.0168186 -0.0149288 -0.00113384
0.00377945 -0.0075589 0
0.0325033 -0.013606 -0.00869274
-0.0100155 0.00075589 0.00321253
-0.0196532 0.0360938 0.0493218
-0.0188973 0.0243775 0.0472432
-0.0096376 -0.0236216 -0.00188973
-0.00075589 -0.0578256 -0.0468652
-0.00170075 -0.0447865 -0.0436527
-0.00888171 -0.0368497 -0.00736993
0.0583925 -0.0387394 0.00869274
-0.00510226 0.00869274 0.00245664
0 0.0113384 -0.00113384
0.00321253 0.00907068 -0.000377945
0.0020787 0.00434637 0.00434637
-0.00321253 0.00226767 0.00888171
0.00793685 0.0115273 -0.00491329
0.0122832 0.0100155 -0.00604712
0.0117163 0.00434637 -0.00132281
0.00680301 0.00188973 0.00359048
-0.00510226 -0.00283459 0.0134171
0.00132281 0.0154958 -0.00510226
-0.00774788 0.00472431 0.0096376
-0.0105825 0.0075589 0.00359048
0.00661404 0.0171965 -0.00907068
-0.0219208 0.0309915 -0.0221098
0 0.0188973 -0.0253223
0.0268341 -0.027401 0.0041574
0.00359048 -0.0141729 0.00604712
-0.0281569 0.0731324 0.0856046
-0.0262672 0.0525344 0.0837149
0.00699199 -0.0948642 -0.0842818
0.00510226 -0.0702978 -0.0771008
-0.00245664 -0.0377945 0.00396842
-0.0173855 -0.0294797 -0.0168186
-0.00680301 -0.0517785 -0.0147399
0.0708647 -0.0427078 0.00907068
0.0440306 -0.054991 0.0292908
0.0793685 -0.0360938 0
0.00850377 0.0170075 -0.0100155
0.0154958 0.0124722 -0.00982658
0.0154958 0.00245664 -0.00188973
0.0062361 -0.00226767 0.00718096
-0.00774788 -0.00302356 0.0102045
Vibration 7
0.00812582 -0.00661404 0.0020787
0.00793685 -0.00566918 -0.00377945
0.00585815 -0.00434637 -0.0075589
0.00434637 -0.00548021 -0.0100155
0.00434637 -0.00661404 -0.00434637
0.0062361 -0.0075589 0.00491329
0.00340151 -0.00736993 -0.00718096
0.00604712 -0.0107714 0.0188973
0.00585815 -0.013795 0.0321253
0.00510226 -0.00491329 0.00321253
-0.0291018 0.0113384 -0.0192752
-0.041385 0.0181414 -0.0239995
-0.0177634 0.00831479 -0.00566918
0.0200311 -0.00944863 0.0190862
0.0308025 -0.0154958 0.0232436
-0.0362827 0.0181414 -0.0153068
0.00566918 0.00113384 -0.00604712
0.00699199 0.0215429 0.0145509
0.00585815 0.0336371 0.0228657
0.00377945 0.0247554 0.0100155
0.00264562 0.00170075 -0.0130391
0.00321253 -0.00982658 -0.020787
0.00321253 0.034771 0.0234326
-0.0187083 0.0130391 0.00132281
0.00377945 -0.00680301 -0.0100155
0.00359048 -0.00699199 -0.0103935
0.00113384 -0.00774788 -0.00359048
0.000188973 -0.00699199 -0.000188973
0.00226767 -0.00642507 -0.00585815
-0.000944863 -0.00888171 0.000566918
-0.00359048 -0.00907068 0.00812582
-0.00396842 -0.00718096 0.0122832
-0.00226767 -0.00661404 0.00812582
0.00245664 -0.00548021 -0.00604712
0.00529123 -0.00699199 -0.0156847
0.00453534 -0.00661404 -0.0119053
0.00907068 -0.00491329 -0.00510226
0.00132281 -0.00925966 -0.00925966
-0.0472432 0.0192752 -0.0330702
-0.0693529 0.0311805 -0.0419519
0.0400622 -0.0181414 0.034393
0.0589595 -0.0281569 0.041196
0.00812582 0.0289128 0.0241885
0.00774788 0.0506447 0.0393063
0.000377945 -0.00642507 -0.0245664
0.0020787 -0.0262672 -0.0376055
0.00396842 0.0151178 -0.136627
0.020409 -0.0982658 0.127745
-0.0141729 0.186705 0.0950532
-0.0434637 0.0260782 -0.0130391
-0.00812582 0.0272121 0.0379835
0.00510226 -0.0162516 -0.0109604
-0.00113384 -0.0109604 -0.00396842
-0.00566918 -0.0107714 0.0111494
-0.00566918 -0.00661404 0.0188973
-0.00264562 -0.00548021 0.0111494
0.00434637 -0.00472431 -0.0100155
Vibration 8
0.00661404 -0.00585815 0.0041574
0.00642507 -0.00321253 0.00170075
0.00340151 -0.00151178 -0.00396842
0.00113384 -0.00302356 -0.00680301
0.00113384 -0.00548021 -0.00245664
0.00396842 -0.00699199 0.00302356
-0.00075589 -0.00642507 -0.00377945
0.00377945 -0.0100155 0.00793685
0.00359048 -0.0120942 0.0124722
0.00604712 -0.00548021 0.0062361
0.00151178 -0.00510226 0.00472431
-0.00661404 -0.000566918 0.00132281
-0.0102045 0.00359048 -0.00075589
-0.00245664 0.00132281 0.00302356
0.00585815 -0.00340151 0.00661404
-0.0219208 0.0096376 -0.00661404
0.00340151 0.0041574 -0.00472431
0.00548021 0.0272121 0.0166296
0.00566918 0.0368497 0.0202201
0.00188973 0.0226767 0.00170075
-0.00132281 -0.00075589 -0.0217318
-0.000188973 -0.0096376 -0.0251334
0.00075589 0.0445975 0.0020787
-0.0334482 0.0194642 -0.0149288
-0.00151178 -0.00699199 -0.000188973
0.00113384 -0.00566918 -0.00151178
0.00321253 -0.00699199 -0.000944863
0.00264562 -0.0096376 0.00132281
-0.000566918 -0.0109604 0.00453534
0.00566918 -0.00566918 -0.00321253
0.00831479 -0.00661404 -0.00434637
0.00812582 -0.0096376 -0.00264562
0.00548021 -0.0109604 0
-0.00151178 -0.0143619 0.0062361
0.00170075 -0.00321253 -0.00302356
-0.00377945 -0.00925966 0.0062361
0.00888171 -0.00170075 0.00434637
0.00491329 -0.00264562 -0.00472431
0.00377945 -0.00793685 0.00585815
-0.0109604 0.000377945 -0.000377945
-0.00340151 0.00340151 0.00283459
0.0113384 -0.00491329 0.00925966
0.00812582 0.0379835 0.0309915
0.0062361 0.0546131 0.0385504
-0.00226767 -0.0122832 -0.0362827
-0.00264562 -0.02759 -0.0421409
-0.0279679 0.0903289 0.293852
0.000188973 0.29423 -0.177067
0.0283459 -0.213728 -0.118864
-0.0451645 0.0257003 -0.0215429
-0.0232436 0.0315584 -0.0171965
-0.0410071 0.00869274 -0.0124722
0.0062361 -0.00264562 -0.00529123
0.0102045 -0.00510226 -0.0062361
0.0102045 -0.0107714 -0.00359048
0.00510226 -0.0132281 0.00113384
-0.00359048 -0.0145509 0.00321253
Vibration 9
-0.013606 0.00132281 0.0228657
-0.0130391 -0.000377945 0.0132281
-0.0107714 -0.0020787 0.00434637
-0.0096376 -0.00151178 -0.00302356
-0.00944863 0.00113384 0.00736993
-0.0119053 0.00245664 0.0300466
-0.0041574 0.00340151 -0.00585815
-0.0119053 0.00774788 0.0634948
-0.0120942 0.013795 0.0975099
-0.00944863 -0.00113384 0.0160627
0.0202201 -0.00283459 0.0236216
0.0315584 -0.00850377 0.0122832
0.0107714 -0.0132281 -0.00736993
-0.020409 -0.0117163 -0.0162516
-0.0300466 -0.00604712 -0.00396842
0.0260782 -0.0194642 -0.0164406
-0.0109604 -0.00132281 0.00075589
-0.00736993 -0.00661404 -0.00812582
-0.00774788 -0.00188973 -0.00831479
-0.0113384 0.00831479 0.000944863
-0.0147399 0.0126612 0.00869274
-0.0143619 0.0075589 0.00812582
-0.0117163 0.0151178 0.00226767
0.00396842 -0.0245664 -0.041574
0.00812582 0.00491329 -0.0319364
0.0154958 0.00831479 -0.0402512
0.0111494 0.00359048 -0.0164406
0.00793685 0 -0.00302356
0.0109604 -0.000377945 -0.0268341
0.0102045 0.00226767 -0.00321253
0.00472431 -0.00113384 0.0272121
0.00340151 -0.00075589 0.047999
0.0041574 -0.00132281 0.0326923
0.0111494 -0.00132281 -0.027779
0.0232436 0.0143619 -0.0642507
0.0154958 0.00170075 -0.0521564
-0.0145509 -0.00113384 0.0119053
0.0160627 0.0117163 -0.0459203
0.0353379 0.000944863 0.0381725
0.0557469 -0.0096376 0.0183303
-0.0370386 -0.0151178 -0.0317474
-0.0536682 -0.0062361 -0.00925966
-0.00434637 -0.0143619 -0.0145509
-0.00491329 -0.00604712 -0.0151178
-0.0175745 0.0202201 0.0151178
-0.0170075 0.0105825 0.013795
-0.0164406 0.0179524 0.0132281
-0.00869274 0.0255113 -0.00359048
-0.0103935 0.00736993 -0.00151178
0.0226767 -0.0291018 -0.0455424
-0.00170075 -0.0325033 -0.0672742
-0.0222988 -0.0160627 -0.0298577
0.00907068 0.00321253 -0.0239995
0.00113384 -0.00491329 0.0368497
0.00132281 -0.000944863 0.075967
0.0020787 -0.00264562 0.0474321
0.0111494 -0.000944863 -0.0313695
Vibration 10
0.00113384 0.000944863 -0.0311805
0.00132281 -0.00075589 -0.0555579
0.0041574 -0.00245664 -0.0508336
0.00774788 -0.000188973 -0.0408181
0.00774788 0.00132281 -0.020598
0.00472431 0.00321253 -0.0075589
0.00642507 0.00113384 -0.00907068
0.00453534 0.0117163 0.0374166
0.00453534 0.0215429 0.0806913
0.000566918 0.00151178 -0.0215429
0.0156847 -0.0173855 -0.00113384
0.0181414 -0.0188973 0.0119053
0.00359048 -0.00132281 0.00377945
-0.0132281 0.0179524 -0.0171965
-0.013795 0.0179524 -0.0292908
0.00812582 -0.00491329 0.0194642
0.00434637 -0.00831479 -0.0379835
-0.0128501 -0.00642507 -0.0196532
-0.0134171 -0.00529123 0.0115273
0.00321253 -0.00642507 0.0238105
0.020787 -0.0132281 0.000566918
0.020976 -0.013984 -0.0302356
0.00283459 -0.000566918 0.0644397
-0.00907068 0.0143619 0.00888171
-0.00132281 -0.000566918 0.0096376
-0.00736993 -0.00302356 0.0179524
-0.00661404 -0.00075589 0.00850377
-0.00472431 0.0020787 0.000566918
-0.00510226 0.00264562 0.0115273
-0.00812582 -0.00113384 0.00472431
-0.00661404 0.000944863 -0.00982658
-0.00566918 0.00245664 -0.0228657
-0.00434637 0.00359048 -0.0175745
-0.00472431 0.00472431 0.0109604
-0.0117163 -0.00718096 0.0315584
-0.00661404 0.000944863 0.0243775
0.000188973 -0.00151178 -0.0721875
-0.0102045 -0.00812582 0.027401
0.0260782 -0.0309915 0.00377945
0.0313695 -0.0334482 0.0283459
-0.0249444 0.0323143 -0.0236216
-0.0253223 0.0309915 -0.0436527
-0.0264562 -0.00434637 -0.0283459
-0.0270231 -0.0020787 0.0270231
0.034204 -0.0166296 0.0075589
0.034204 -0.0173855 -0.0459203
0.00245664 -0.00151178 0.0565028
0.0287238 -0.013795 0.0873053
-0.0224877 0.0177634 0.0840928
-0.00075589 0.00604712 0.0253223
-0.0096376 0.0122832 -0.0224877
-0.027779 0.0376055 0.0187083
-0.00718096 -0.00396842 0.0171965
-0.00548021 0.0020787 -0.0124722
-0.00566918 0.00302356 -0.0370386
-0.00302356 0.00548021 -0.0270231
-0.0020787 0.00585815 0.00736993
Vibration 11
-0.00982658 -0.00831479 -0.00113384
-0.00888171 -0.0194642 0.000188973
0.00075589 -0.0255113 0.00680301
0.0102045 -0.0194642 0.0211649
0.0111494 -0.00850377 0.0202201
0.000944863 -0.00245664 0.00604712
0.0215429 -0.00359048 0.0266451
0.00151178 0.0134171 -0.00604712
0.0020787 0.0292908 -0.0185193
-0.0213539 -0.00226767 -0.0103935
-0.0145509 -0.00718096 -0.00453534
-0.0156847 -0.00661404 -0.00491329
-0.0234326 -0.00264562 -0.0103935
-0.0387394 0.00680301 -0.0222988
-0.0377945 0.0062361 -0.0224877
-0.0154958 -0.00680301 -0.00529123
0.000944863 -0.0253223 -0.00566918
0.013606 -0.0122832 -0.0041574
0.0126612 0.0113384 -0.00264562
-0.00188973 0.020598 -0.00377945
-0.0145509 -0.000377945 -0.0147399
-0.0128501 -0.0234326 -0.0154958
-0.00377945 0.0566918 0.00774788
0.0309915 -0.0355268 0.0326923
0.0260782 -0.00321253 0.0141729
0.0168186 -0.00925966 0.00434637
0.00585815 -0.00113384 -0.000188973
0.00453534 0.0107714 0.00548021
0.0156847 0.0158737 0.00680301
-0.00359048 -0.00510226 -0.0109604
-0.0151178 0.000377945 -0.0151178
-0.0156847 0.0113384 -0.00377945
-0.00718096 0.0170075 0.00661404
0.0173855 0.0323143 0.0145509
0.0187083 -0.0215429 -0.00226767
0.0302356 0.0075589 0.00170075
-0.0160627 -0.0236216 -0.00510226
0.00283459 -0.0190862 -0.0179524
-0.00661404 -0.0124722 0.00113384
-0.00850377 -0.0107714 0.000377945
-0.0510226 0.0143619 -0.0311805
-0.048566 0.0122832 -0.0302356
0.0245664 -0.0183303 -0.00245664
0.0230547 0.0238105 0.00113384
-0.0257003 0.00264562 -0.020409
-0.0232436 -0.0370386 -0.020787
-0.0285349 0.0659514 0.0115273
0.0175745 0.0678412 0.0107714
-0.00170075 0.0670853 0.0111494
0.054991 -0.0498888 0.0515895
0.00472431 -0.0661404 0.05518
0.0674632 -0.0117163 0.0187083
-0.00510226 -0.0154958 -0.020409
-0.0232436 -0.00264562 -0.0245664
-0.0232436 0.0154958 -0.00396842
-0.00812582 0.0262672 0.0153068
0.0302356 0.034582 0.0219208
Vibration 12
-0.013984 -0.000566918 -0.0096376
-0.013984 -0.00604712 -0.0173855
-0.0096376 -0.00907068 -0.00888171
-0.00472431 -0.0062361 0.0102045
-0.00453534 -0.000188973 0.013795
-0.0096376 0.0020787 -0.000566918
0.00510226 0.00529123 0.02759
-0.00925966 0.00396842 -0.0124722
-0.00925966 0.00359048 -0.0281569
-0.00907068 -0.00377945 -0.00529123
-0.0221098 0.00340151 -0.0149288
-0.00283459 -0.00736993 -0.000944863
0.0270231 -0.0239995 0.020787
0.0410071 -0.0315584 0.0308025
0.0224877 -0.020976 0.0177634
0.0489439 -0.0366607 0.0381725
-0.00982658 -0.0141729 -0.0154958
-0.0107714 -0.0130391 -0.013606
-0.0113384 -0.00548021 -0.00529123
-0.0120942 0.000188973 0.00075589
-0.0111494 -0.00888171 -0.00982658
-0.0105825 -0.0156847 -0.0177634
-0.0130391 0.0183303 0.020976
-0.0536682 0.0222988 -0.0468652
0.0143619 0.00491329 0.0130391
0.0109604 0.00302356 0.00680301
0.00566918 0.00831479 0.00113384
0.0041574 0.013795 0.0075589
0.0107714 0.0164406 0.00302356
0.00396842 0.00793685 -0.0119053
-0.0020787 0.0111494 -0.0145509
-0.00321253 0.0145509 0.00359048
-0.00151178 0.0162516 0.0149288
0.0117163 0.027779 0.0100155
0.0126612 -0.00359048 0.00132281
0.0219208 0.0111494 -0.00793685
-0.0173855 -0.00812582 -0.0289128
0.00699199 0.00548021 -0.020598
-0.0474321 0.0175745 -0.0332592
-0.0119053 -0.00226767 -0.0075589
0.0682191 -0.0476211 0.0506447
0.0336371 -0.0270231 0.0257003
-0.0109604 -0.0158737 -0.0171965
-0.0113384 -0.00226767 -0.00188973
-0.0109604 -0.00888171 -0.00944863
-0.0105825 -0.020598 -0.0228657
-0.0245664 0.0230547 0.0270231
0.00604712 0.0243775 0.0266451
-0.0213539 0.0232436 0.0270231
-0.0680301 0.0325033 -0.061983
-0.0187083 0.0606602 -0.129446
-0.144942 0.0154958 -0.00831479
0.00170075 0.00850377 -0.0251334
-0.00604712 0.0109604 -0.027401
-0.00604712 0.0158737 0.00793685
-0.00321253 0.0196532 0.0289128
0.0213539 0.0298577 0.0134171
Vibration 13
0.00888171 -0.00642507 -0.0417629
0.00850377 0.0041574 -0.0496998
-0.00245664 0.0105825 0.00340151
-0.0109604 0.00510226 0.0449755
-0.0117163 -0.00396842 0.0328812
-0.000944863 -0.0105825 -0.00245664
-0.0158737 -0.00585815 0.0521564
-0.00170075 -0.0268341 0.00869274
-0.00226767 -0.0455424 0.0215429
0.0117163 -0.00793685 -0.0440306
0.00680301 -0.0247554 -0.0287238
-0.000377945 -0.0222988 -0.00869274
-0.00245664 -0.000944863 -0.00510226
0.0020787 0.0171965 -0.0196532
0.00982658 0.0113384 -0.0387394
-0.0122832 0.000944863 0.0198421
-0.00302356 0.0196532 0.0149288
-0.00642507 0.0226767 0.020976
-0.00585815 0.013606 0.0145509
-0.00283459 0.000377945 0.00113384
-0.000944863 0.00736993 0.00680301
-0.00170075 0.0175745 0.0143619
-0.00151178 -0.0253223 -0.0234326
-0.00699199 0.0266451 0.0355268
-0.00283459 -0.00226767 0.0187083
0.00113384 -0.00132281 0.00321253
0.000944863 0.00132281 -0.0020787
-0.00151178 0.00113384 0.0100155
0.00359048 0.00226767 -0.00718096
0.00869274 0.00566918 -0.0247554
0.00604712 0.0062361 -0.0230547
0.00321253 0.00151178 0.0175745
-0.00245664 -0.00075589 0.0330702
0.00585815 0.00680301 -0.0124722
0.0075589 -0.00226767 -0.0156847
0.0111494 0.000944863 -0.0224877
0.0173855 0.00944863 -0.0880612
0.0103935 0.0194642 -0.0548021
0.00793685 -0.0417629 -0.0326923
-0.00359048 -0.0359048 0.00321253
-0.000188973 0.0353379 -0.0166296
0.0149288 0.0238105 -0.048566
-0.0096376 0.0304246 0.0272121
-0.0075589 0.0145509 0.0170075
0.00132281 0.00264562 0.00302356
-0.000377945 0.020787 0.0170075
0.0145509 -0.0317474 -0.0283459
-0.0266451 -0.0315584 -0.0321253
0.00793685 -0.0349599 -0.0319364
-0.0130391 0.0194642 0.0610381
-0.00472431 0.0291018 0.0243775
-0.000566918 0.048377 0.034393
0.0041574 0.0202201 -0.0563138
0.00529123 0.0096376 -0.0459203
0.00472431 0 0.034204
-0.00642507 -0.00377945 0.0627389
0.00718096 0.00661404 -0.00736993
Vibration 14
-0.00264562 -0.000944863 -0.020787
-0.00170075 -0.0062361 -0.00529123
0.00264562 -0.00907068 0.020409
0.00642507 -0.0062361 0.0217318
0.00774788 -0.00226767 -0.000188973
0.00245664 0.00113384 -0.0109604
0.0096376 -0.00245664 -0.0170075
0.00302356 0.0219208 0.00283459
0.00359048 0.0519675 0.0243775
-0.0102045 0.00321253 -0.0300466
-0.0238105 0.00283459 -0.0323143
-0.0166296 -0.00188973 -0.0164406
0.00377945 -0.00472431 0.00075589
0.00377945 0.0041574 -0.00680301
-0.00245664 0.00680301 -0.0217318
0.0296687 -0.020976 0.0349599
0.00264562 -0.0020787 0.0298577
0.0134171 0.0075589 0.0291018
0.013795 0.013795 0.013984
0.00245664 0.00907068 -0.00113384
-0.00982658 0.00944863 0.0102045
-0.00907068 0.00377945 0.0258892
0.00283459 0.0020787 -0.0374166
-0.0160627 0.0171965 0.00170075
0.00264562 -0.00377945 -0.00283459
0.00812582 -0.0041574 -0.0192752
0.00321253 -0.00907068 0.00170075
0.00566918 -0.00604712 -0.0124722
0.000944863 -0.00699199 0.00642507
-0.013606 -0.0177634 0.0326923
-0.0147399 -0.0183303 0.0381725
-0.0107714 -0.00680301 -0.0187083
0.00226767 -0.00132281 -0.0440306
0.00188973 -0.0147399 -0.00907068
0.0126612 0.00245664 -0.0374166
-0.013984 -0.00548021 0.0436527
-0.00510226 -0.00812582 -0.0111494
-0.00642507 -0.0385504 0.0330702
-0.0381725 0.00434637 -0.0445975
-0.0239995 -0.00434637 -0.0156847
0.0122832 0.00604712 0.00132281
0.00170075 0.0111494 -0.0245664
0.0222988 0.00850377 0.0372276
0.0232436 0.0196532 0.0117163
-0.0194642 0.0115273 0.00472431
-0.0183303 0.00170075 0.0321253
0.00529123 -0.000377945 -0.0506447
-0.0211649 -0.00321253 -0.0462983
0.0243775 0.00302356 -0.0472432
0.0020787 0.0020787 0.02759
-0.0149288 0.0154958 -0.0680301
-0.0648176 0.0585815 0.0255113
-0.00585815 -0.0506447 0.0667073
-0.0173855 -0.0260782 0.0750221
-0.0164406 -0.00283459 -0.0394953
0.00793685 0.00699199 -0.0873053
-0.00850377 -0.0183303 0.00245664
Vibration 15
0.00340151 0.0020787 0.00888171
0.00226767 0.00661404 -0.0151178
-0.00170075 0.00907068 -0.0122832
-0.00340151 0.00774788 0.0211649
-0.00491329 0.00359048 0.0379835
-0.000377945 0.00075589 0.0239995
-0.00831479 0.00245664 0.0423299
-0.000566918 -0.0151178 -0.000944863
-0.000944863 -0.0377945 -0.0368497
0.00888171 -0.000566918 0.0113384
0.0166296 -0.00245664 0.0149288
0.0130391 -0.000188973 0.00907068
0.00113384 0.0041574 0
0.00188973 0.00132281 0.00283459
0.00529123 -0.00075589 0.00812582
-0.0153068 0.0141729 -0.0162516
-0.00113384 -0.00245664 -0.0306136
-0.0107714 -0.013606 -0.0326923
-0.0113384 -0.0183303 -0.0183303
-0.00151178 -0.0107714 -0.00151178
0.00944863 -0.0168186 -0.0179524
0.00869274 -0.0119053 -0.0323143
-0.00264562 0.00774788 0.0451645
0.00812582 -0.00170075 0.00226767
-0.0124722 0.0041574 0.041196
0.0096376 0.0105825 -0.0130391
-0.000944863 0.00377945 0.027779
0.00132281 0.00529123 0.0154958
-0.00226767 0.00321253 0.0107714
-0.0117163 -0.000566918 0.0268341
-0.0096376 0.000377945 0.0194642
-0.00812582 0.00529123 -0.00548021
-0.000566918 0.00888171 -0.013795
0.0158737 -0.00736993 -0.0952422
0.0349599 0.0300466 -0.0971319
-0.0355268 0.00491329 0.104313
0.00585815 0.00850377 -0.0359048
0.013795 -0.00302356 -0.0472432
0.0243775 -0.00491329 0.020787
0.0171965 -0.00075589 0.0105825
-0.00226767 0.00170075 -0.00075589
0.00396842 -0.00170075 0.00869274
-0.0188973 -0.0153068 -0.0410071
-0.0194642 -0.0234326 -0.0164406
0.0183303 -0.020787 -0.0154958