[Molden Format]
[FREQ]
-900.4
14.7
17.9
21.8
28.0
31.4
36.6
38.9
39.8
51.7
62.9
76.2
84.4
100.9
105.6
116.1
130.4
133.2
156.0
165.7
179.1
195.7
212.7
221.6
226.8
243.5
247.5
260.7
269.1
279.3
298.6
309.6
330.0
350.8
353.6
355.8
361.6
376.7
393.8
401.2
424.6
472.9
486.1
490.5
500.4
515.8
522.8
528.1
534.0
547.4
552.1
573.8
601.6
614.4
615.8
622.2
636.5
640.9
651.8
668.4
689.1
694.7
711.0
718.8
747.5
766.1
787.8
801.0
819.7
846.5
864.4
880.2
884.7
897.4
901.6
908.2
928.2
954.6
965.2
1002.7
1007.0
1008.7
1014.2
1017.1
1018.4
1032.8
1042.0
1053.3
1071.1
1080.3
1085.1
1123.6
1125.4
1139.8
1149.5
1177.5
1181.3
1181.6
1195.1
1217.2
1236.2
1258.2
1260.1
1264.2
1269.5
1275.6
1283.6
1286.4
1287.3
1292.6
1298.5
1310.1
1326.2
1330.1
1343.0
1345.4
1350.4
1353.0
1376.0
1389.5
1415.9
1422.4
1440.4
1462.0
1491.2
1500.2
1522.1
1525.7
1538.3
1562.5
1580.3
1592.3
1653.7
1667.1
1699.5
1701.0
1706.2
1708.5
1709.5
1740.8
1759.9
1778.8
1953.1
2345.4
2652.5
2653.4
2667.5
2674.1
2733.7
2742.9
2743.2
2744.9
2747.4
2749.6
2751.0
2756.6
2760.0
2763.2
2764.2
2766.7
2769.5
2770.8
2771.8
2779.7
2828.2
       
[FR-COORD]
C -2.30792 -3.25543 0.529312
C 0.267774 -3.25543 0.529312
C 1.58189 -0.863794 0.529312
N 0.414228 1.31714 0.573343
C -2.25728 1.44545 0.520242
C -3.67552 -0.924265 0.497565
N -3.42324 3.60541 0.447865
C -6.22684 -0.757591 0.305569
N -8.44254 -0.574666 0.39174
C -3.74695 -5.6293 0.540273
C -3.7016 -7.1974 -1.59266
C -5.06503 -9.43106 -1.61099
C -6.46343 -10.0959 0.548776
C -6.50878 -8.56537 2.69513
C -5.13344 -6.32132 2.67094
O -7.70952 -12.3201 0.273821
C 4.36886 -0.798787 0.485471
C 5.76707 -2.30225 2.14011
C 8.39397 -2.18037 2.11536
C 9.63382 -0.567107 0.431235
C 8.22617 0.92521 -1.23361
C 5.60171 0.815039 -1.20394
C 12.4472 -0.440117 0.382292
C -9.1459 -13.2009 2.36518
C -2.13293 5.9515 0.199744
C 0.639105 5.91012 1.38706
C 2.67207 6.69624 -0.1748
C 1.98648 6.72478 -2.7556
C -0.469408 5.57885 -3.11861
C 5.03933 7.64262 0.588272
C 6.58248 8.74924 -1.19525
C 5.78955 8.96921 -3.73807
C 3.49316 8.00809 -4.51947
O -1.38196 4.29365 -4.69597
O 0.800299 5.1529 3.71766
O -3.23767 7.96482 0.198043
H 1.36022 -4.9868 0.518919
H 2.54149 4.62699 4.25793
H -2.58836 -6.64636 -3.2422
H -5.06862 -10.6758 -3.24636
H -7.57459 -9.09261 4.36319
H -5.1308 -5.1068 4.33806
H 4.80482 -3.55854 3.45801
H 9.48189 -3.34708 3.4102
H 9.18199 2.17867 -2.5534
H 4.49358 1.99498 -2.48953
H 13.322 -1.30712 2.05186
H 13.1315 1.51953 0.288561
H 13.2039 -1.43109 -1.28407
H -9.91029 -14.9927 1.64274
H -10.6804 -11.8898 2.81361
H -7.93307 -13.5418 4.00527
H 5.60625 7.53566 2.55982
H 8.42251 9.49266 -0.662727
H 7.03942 9.89404 -5.08676
H 2.86747 8.16343 -6.47288
H -10.1524 -0.318608 -0.223177

[FR-NORM-COORD]
Vibration 1
-0.000566918 -0.000566918 0.000377945
-0.000944863 -0.00264562 0.00170075
0.00264562 -0.00736993 0.00151178
-0.0113384 -0.0122832 -0.0113384
0.0141729 -0.00718096 0.00548021
0.00377945 0.00831479 -0.00491329
-0.00907068 0.0190862 -0.0222988
-0.00396842 0.00170075 0.00453534
0.00151178 0.000188973 -0.0041574
-0.00113384 0.000944863 -0.000377945
0.000188973 0 0.000188973
0 0.000188973 -0.000188973
-0.000377945 -0.000566918 0
0 0.000188973 -0.000188973
-0.000188973 0 0.000188973
-0.000188973 0.000377945 -0.000188973
-0.00075589 -0.00113384 -0.00132281
-0.000188973 -0.000944863 0
-0.000377945 -0.000944863 0
-0.000377945 -0.000566918 -0.000377945
0 -0.00113384 -0.000377945
-0.000566918 0.00075589 0.000188973
-0.000188973 -0.000566918 -0.000188973
-0.000188973 -0.000188973 0
0.0190862 0.0149288 0.353946
-0.00396842 0.0538572 -0.089951
-0.0882502 -0.0103935 0.0472432
-0.0368497 -0.0653845 -0.000566918
0.226011 0.0496998 -0.280813
0.0338261 0.00585815 -0.00472431
-0.0143619 -0.0160627 0.0491329
-0.0379835 -0.00510226 -0.0362827
0.0168186 0.0597153 -0.0107714
-0.0459203 -0.0381725 0.0253223
-0.0249444 0.00661404 0.0241885
-0.00396842 -0.0241885 -0.034771
0.000188973 -0.00472431 0.00585815
-0.0222988 -0.109604 -0.180469
0.00510226 -0.00264562 0.00245664
0.00075589 -0.000566918 0.000188973
0.000944863 -0.000944863 0.00075589
0.00170075 -0.00132281 0.00188973
0.000944863 0.00245664 0.00283459
-0.000566918 0.00151178 0.00113384
-0.00264562 0.0075589 0.00434637
0.00151178 0.0211649 0.0130391
-0.000188973 0.000377945 0
-0.00132281 0.000566918 0.000566918
0.00075589 0.000566918 0.000566918
0 -0.000377945 -0.000377945
-0.000188973 -0.000566918 0.000377945
0.000188973 -0.000566918 0
-0.00680301 -0.0296687 0.00302356
-0.00869274 0.000188973 -0.00982658
0.0153068 -0.0257003 0.0111494
-0.00982658 0.0372276 0.00226767
-0.0147399 -0.00548021 0.0376055
Vibration 2
0.00151178 -0.00434637 -0.00510226
0.00188973 -0.00377945 -0.00396842
0.00188973 -0.00377945 -0.00718096
0.00188973 -0.00377945 -0.00661404
0.0020787 -0.00396842 -0.00566918
0.0020787 -0.00396842 -0.0115273
0.00113384 -0.0041574 -0.000566918
0.00321253 -0.00226767 -0.0245664
0.00283459 0.000188973 -0.0364717
0.00264562 -0.00453534 0.00170075
0.0583925 -0.0457314 0.0330702
0.0597153 -0.0464873 0.0402512
0.00434637 -0.00642507 0.0166296
-0.0512116 0.034204 -0.0134171
-0.0517785 0.034204 -0.020787
0.0128501 -0.0122832 0.0270231
0.00170075 -0.00340151 -0.0107714
0.00472431 -0.00812582 -0.0175745
0.00472431 -0.00831479 -0.0219208
0.00188973 -0.00340151 -0.0192752
-0.00113384 0.00188973 -0.0120942
-0.00113384 0.00170075 -0.00793685
0.00170075 -0.00396842 -0.0241885
-0.0427078 0.0281569 0.00604712
-0.000377945 -0.00264562 0.00585815
-0.000944863 -0.00340151 0.00718096
-0.00151178 0.0041574 0.0103935
-0.00075589 0.0107714 0.0102045
0.00132281 0.0075589 0.00642507
-0.00321253 0.00566918 0.013795
-0.00472431 0.0141729 0.0175745
-0.00453534 0.020598 0.0181414
-0.00245664 0.0183303 0.0143619
0.00377945 0.0102045 0.00302356
-0.000944863 -0.0119053 0.00434637
-0.0020787 -0.00359048 0.0109604
0.0020787 -0.00359048 0.000944863
-0.000377945 -0.0119053 0.00302356
0.100344 -0.0765339 0.0510226
0.102234 -0.0774788 0.0636838
-0.0933525 0.0650066 -0.0304246
-0.0944863 0.0653845 -0.0430858
0.00718096 -0.0119053 -0.0192752
0.00699199 -0.0120942 -0.027401
-0.00340151 0.00585815 -0.0100155
-0.00321253 0.00566918 -0.00245664
0.00396842 0.00113384 -0.0226767
0.00245664 -0.00472431 -0.0315584
-0.00132281 -0.00982658 -0.0221098
-0.0241885 0.0145509 0.0200311
-0.0542351 0.0370386 -0.0597153
-0.0859825 0.0591484 0.0444086
-0.00340151 0.000377945 0.013606
-0.0062361 0.0156847 0.0202201
-0.00604712 0.0272121 0.0213539
-0.00188973 0.0226767 0.0145509
0.00699199 0.00245664 -0.0472432
Vibration 3
0.0075589 -0.00793685 -0.00113384
0.00736993 -0.0102045 -0.00264562
0.0100155 -0.0111494 -0.000944863
0.0122832 -0.0096376 -0.00359048
0.0124722 -0.00793685 -0.00226767
0.0102045 -0.00680301 0.000188973
0.0102045 -0.00925966 -0.000944863
0.0100155 -0.00359048 0.00377945
0.0103935 -0.00113384 0.00661404
0.00377945 -0.00566918 -0.000188973
-0.0075589 -0.0020787 -0.00302356
-0.0141729 0.00188973 -0.00245664
-0.00944863 0.00245664 0.00075589
0.00283459 -0.00170075 0.00396842
0.00944863 -0.00585815 0.00340151
-0.0181414 0.00718096 0.000377945
0.0102045 -0.0160627 0.00661404
0.00264562 -0.0489439 -0.0164406
0.00302356 -0.0574477 -0.00888171
0.0117163 -0.0317474 0.0221098
0.0198421 0.00264562 0.0459203
0.0194642 0.0100155 0.0381725
0.0122832 -0.0406291 0.0294797
-0.0156847 0.00888171 0.00283459
0.00170075 -0.00585815 -0.0041574
0.00453534 0.00680301 -0.00831479
-0.00510226 0.0241885 -0.0124722
-0.0132281 0.0221098 -0.0103935
-0.00510226 0.0020787 -0.00377945
-0.0122832 0.0459203 -0.0181414
-0.0294797 0.0661404 -0.020598
-0.0387394 0.0616051 -0.0179524
-0.0304246 0.0377945 -0.0134171
0.000566918 -0.00377945 -0.0020787
0.0156847 -0.000944863 -0.0122832
-0.00548021 -0.00925966 -0.000188973
0.00529123 -0.0115273 -0.00491329
0.0202201 0.00718096 -0.0187083
-0.0115273 -0.00245664 -0.00566918
-0.0232436 0.00491329 -0.00472431
0.00699199 -0.00170075 0.00661404
0.0187083 -0.00888171 0.00566918
-0.00377945 -0.0685971 -0.0396842
-0.00359048 -0.0837149 -0.0272121
0.0266451 0.0232436 0.0704868
0.0258892 0.0355268 0.0557469
0.00699199 -0.0890061 0.00718096
0.0188973 -0.0402512 0.0839038
0.0113384 0.00226767 0.00377945
-0.0249444 0.0134171 0.00151178
-0.00907068 0.0141729 0.00982658
-0.0122832 0.000944863 -0.00132281
-0.00510226 0.047999 -0.0200311
-0.0359048 0.0852266 -0.0245664
-0.0523454 0.0772898 -0.0200311
-0.0366607 0.0328812 -0.0117163
0.0096376 0.00132281 0.0096376
Vibration 4
-0.00585815 -0.00113384 -0.020787
-0.00604712 -0.00264562 -0.0190862
-0.00472431 -0.00321253 -0.0211649
-0.0041574 -0.00283459 -0.0232436
-0.00396842 -0.00151178 -0.0260782
-0.00472431 -0.000944863 -0.0289128
-0.00302356 -0.00075589 -0.0232436
-0.00453534 -0.00113384 -0.0349599
-0.00453534 -0.00151178 -0.0432747
-0.00680301 -0.00075589 -0.00812582
-0.0362827 0.00264562 -0.0109604
-0.0340151 0.00113384 0.00604712
-0.00151178 -0.00340151 0.0257003
0.0264562 -0.00548021 0.027779
0.0234326 -0.00396842 0.0105825
-0.00151178 -0.00548021 0.0419519
-0.00472431 -0.0041574 -0.0175745
-0.00736993 -0.0117163 -0.0221098
-0.00736993 -0.0124722 -0.0181414
-0.00453534 -0.00548021 -0.00944863
-0.00170075 0.00226767 -0.00472431
-0.00188973 0.00283459 -0.00888171
-0.00434637 -0.00604712 -0.00491329
0.034771 -0.0122832 0.0640617
-0.00170075 -0.000188973 -0.0105825
-0.00774788 -0.00434637 0.00340151
0 0.00396842 0.0175745
0.0132281 0.0151178 0.0141729
0.0158737 0.013795 -0.00264562
-0.0041574 0.00113384 0.0338261
0.00453534 0.00982658 0.0464873
0.0170075 0.0213539 0.0438416
0.0213539 0.0236216 0.027779
0.0253223 0.0190862 -0.0122832
-0.0190862 -0.0183303 -0.000377945
-0.00188973 -0.000188973 -0.00925966
-0.00699199 -0.00340151 -0.0151178
-0.0215429 -0.020409 0.00548021
-0.0602823 0.00566918 -0.0260782
-0.0561249 0.00302356 0.00472431
0.0502667 -0.00812582 0.0421409
0.0453534 -0.00510226 0.0115273
-0.00944863 -0.0170075 -0.0287238
-0.00944863 -0.0185193 -0.0217318
0.000377945 0.00774788 0.0020787
0.000188973 0.00850377 -0.00548021
-0.00699199 -0.0153068 -0.00831479
-0.00377945 -0.00585815 0.00642507
-0.00245664 0.00245664 -0.00907068
0.0298577 -0.0145509 0.0750221
0.0370386 -0.0181414 0.0890061
0.0616051 -0.00888171 0.0449755
-0.013984 -0.00774788 0.0362827
0.00170075 0.00774788 0.0591484
0.0232436 0.0283459 0.0542351
0.0313695 0.0321253 0.0253223
-0.00434637 -0.00302356 -0.0432747
Vibration 5
-0.0177634 0.0177634 -0.00113384
-0.0177634 0.0141729 -0.000944863
-0.0130391 0.0113384 0.00491329
-0.00907068 0.0134171 0.00718096
-0.00907068 0.0173855 0.00453534
-0.013795 0.0198421 0.00359048
-0.00529123 0.0194642 0.00226767
-0.013606 0.0253223 0.00548021
-0.0132281 0.0304246 0.00888171
-0.013606 0.0153068 -0.00548021
0.0117163 0.00774788 0.000377945
0.0334482 -0.00529123 0.00170075
0.0294797 -0.0109604 -0.00264562
-0.00188973 0.000188973 -0.0113384
-0.0234326 0.013606 -0.0126612
0.0597153 -0.0285349 0.00245664
-0.0128501 0.000566918 0.0075589
-0.0215429 -0.0198421 -0.00377945
-0.020598 -0.0396842 -0.00680301
-0.0111494 -0.0383614 0.00151178
-0.00264562 -0.0151178 0.0149288
-0.00340151 0.00434637 0.0179524
-0.0103935 -0.0600933 -0.00434637
0.0684081 -0.041196 0.00321253
-0.00113384 0.0170075 0.000566918
-0.00075589 0.0122832 -0.00113384
0.00075589 0.00377945 -0.00359048
-0.000566918 0.00226767 -0.00340151
-0.00472431 0.0105825 -0.00113384
0.00453534 -0.00321253 -0.00642507
0.00793685 -0.0122832 -0.00907068
0.0075589 -0.013795 -0.00907068
0.00340151 -0.00604712 -0.0062361
-0.0103935 0.0132281 0.000188973
-0.0020787 0.0183303 0.00075589
0.00264562 0.0190862 -0.000188973
-0.020787 0.0120942 -0.00472431
-0.00340151 0.0149288 0.00170075
0.0160627 0.0115273 0.00453534
0.0548021 -0.0122832 0.00680301
-0.00888171 -0.00151178 -0.0164406
-0.0464873 0.0211649 -0.0183303
-0.0287238 -0.0213539 -0.0102045
-0.02759 -0.0563138 -0.0160627
0.00491329 -0.0128501 0.0226767
0.00340151 0.0213539 0.027779
-0.0105825 -0.128501 -0.0396842
0.00359048 -0.0614161 0.0659514
-0.0238105 -0.00396842 -0.0436527
0.100533 -0.0578256 0.0107714
0.0453534 -0.0642507 -0.00869274
0.068975 -0.0119053 0.00888171
0.00491329 -0.00170075 -0.00642507
0.0109604 -0.0183303 -0.0111494
0.0105825 -0.0213539 -0.0113384
0.00283459 -0.00661404 -0.00604712
-0.0124722 0.0351489 0.00831479
Vibration 6
-0.000566918 -0.00075589 -0.0168186
-0.000377945 -0.00302356 -0.00925966
0.00113384 -0.00434637 -0.00793685
0.00245664 -0.00359048 -0.00888171
0.00264562 -0.00113384 -0.00548021
0.00170075 0 -0.0236216
0.00510226 0.00113384 0.0154958
0.00283459 0.00264562 -0.0432747
0.00283459 0.00491329 -0.0670853
-0.00245664 0.000377945 -0.0124722
-0.00831479 -0.00396842 -0.00925966
-0.0075589 -0.00453534 -0.000188973
-0.000377945 -0.00075589 0.00548021
0.0041574 0.00453534 0.00188973
0.00283459 0.00510226 -0.00718096
0.00132281 -0.00283459 0.0151178
0.00132281 -0.00396842 0.000377945
-0.00529123 0.0103935 0.0187083
-0.00529123 0.0164406 0.0334482
0.00075589 0.00736993 0.0292908
0.00699199 -0.00907068 0.00907068
0.00718096 -0.0145509 -0.00529123
0.000566918 0.0171965 0.0470542
0.0132281 -0.00170075 0.0238105
0.00869274 0.00075589 0.0334482
0.0217318 -0.0202201 0.00264562
0.00793685 -0.0187083 -0.013795
-0.0202201 0.00888171 -0.0062361
-0.0302356 0.0289128 0.0075589
0.0213539 -0.0374166 -0.0309915
0.00736993 -0.0287238 -0.0370386
-0.0194642 -0.00075589 -0.0266451
-0.0325033 0.0183303 -0.0105825
-0.0578256 0.0515895 0.00510226
0.0432747 -0.0283459 -0.00113384
0.0147399 0.00396842 0.0701088
-0.00170075 -0.00396842 -0.00340151
0.0466762 -0.0389284 -0.0226767
-0.0130391 -0.00736993 -0.0134171
-0.0117163 -0.00812582 0.00245664
0.00850377 0.00812582 0.00585815
0.00661404 0.00944863 -0.0102045
-0.0102045 0.0175745 0.0219208
-0.0103935 0.0285349 0.048566
0.0120942 -0.0171965 0.00510226
0.0119053 -0.0260782 -0.0198421
-0.00548021 -0.000566918 0.0410071
-0.00680301 0.0213539 0.075967
0.0143619 0.041385 0.0391173
0.0149288 -0.00566918 0.0317474
0.0117163 -0.00472431 0.02759
0.0217318 0.00548021 0.0192752
0.0421409 -0.0591484 -0.0381725
0.0168186 -0.0427078 -0.0502667
-0.0292908 0.00566918 -0.0313695
-0.0531013 0.0396842 -0.00226767
0.00566918 0.00793685 -0.0723765
Vibration 7
-0.00585815 -0.00245664 -0.0211649
-0.00585815 -0.00453534 -0.0428968
-0.00340151 -0.00585815 -0.034582
-0.0020787 -0.00529123 -0.0222988
-0.0020787 -0.00226767 -0.0103935
-0.00472431 -0.000944863 0.00188973
0.00113384 -0.000377945 -0.00377945
-0.00699199 0.00188973 0.0398732
-0.00585815 0.0041574 0.0806913
-0.00642507 -0.0020787 -0.0147399
0.00113384 -0.0145509 -0.00548021
0.00321253 -0.0158737 0.00321253
-0.00302356 -0.00472431 0.00264562
-0.0119053 0.00850377 -0.00680301
-0.0134171 0.00925966 -0.0154958
0.00113384 -0.00812582 0.0128501
-0.00321253 -0.00302356 -0.0268341
-0.00793685 -0.0217318 -0.0398732
-0.00831479 -0.00548021 -0.0156847
-0.00396842 0.0298577 0.0217318
0.00132281 0.0432747 0.0292908
0.00170075 0.0262672 0.00472431
-0.00453534 0.0574477 0.0546131
-0.00510226 0.00359048 0.0134171
0.00529123 -0.0020787 -0.00340151
0.00510226 -0.00925966 -0.00453534
0.00699199 -0.00982658 -0.00264562
0.00774788 -0.00434637 -0.00264562
0.00491329 0.0020787 -0.00472431
0.00907068 -0.0171965 -0.000377945
0.0134171 -0.020409 0.00132281
0.0153068 -0.0154958 0.00113384
0.0120942 -0.00661404 -0.000566918
0.00075589 0.00812582 -0.00718096
0.00472431 -0.0177634 -0.00699199
0.00812582 -0.000566918 -0.00075589
-0.00736993 -0.00548021 -0.062361
0.00377945 -0.0239995 -0.0100155
0.00548021 -0.0230547 -0.00548021
0.00944863 -0.0253223 0.0103935
-0.0170075 0.0175745 -0.00718096
-0.0194642 0.0185193 -0.0222988
-0.0111494 -0.0478101 -0.0670853
-0.0124722 -0.0192752 -0.0245664
0.00510226 0.0680301 0.0555579
0.00566918 0.0374166 0.0113384
-0.0119053 -0.0141729 0.0213539
-0.0238105 0.069164 0.155902
0.0219208 0.14532 0.0145509
0.000377945 -0.00245664 0.0224877
-0.00888171 0.0041574 -0.00132281
-0.0107714 0.0164406 0.0202201
0.0075589 -0.0202201 -0.000188973
0.0154958 -0.0266451 0.00283459
0.0188973 -0.0185193 0.00245664
0.0130391 -0.00188973 -0.000566918
-0.0126612 0.00736993 0.0992106
Vibration 8
0.0041574 -0.00170075 0.00604712
0.0041574 0 0.00982658
0.0020787 0.00113384 0.00585815
0.00113384 0.000377945 0.00226767
0.00075589 -0.00151178 0.00075589
0.00283459 -0.00264562 0.00075589
-0.00075589 -0.00245664 -0.00151178
0.00302356 -0.00491329 -0.00472431
0.00264562 -0.00718096 -0.0103935
0.00434637 -0.00170075 0.00548021
0.00188973 0.00075589 0.00359048
-0.00188973 0.00321253 0.00075589
-0.00321253 0.00283459 -0.000188973
0.00075589 -0.000566918 0.00245664
0.00453534 -0.00283459 0.00529123
-0.00850377 0.00642507 -0.00377945
0.00226767 0.00151178 0.00359048
0.00302356 0.0211649 0.0198421
0.00377945 0.0177634 0.013795
0.0020787 -0.00585815 -0.00907068
0.000188973 -0.0228657 -0.0238105
0.000566918 -0.0188973 -0.0175745
0.00151178 0.00529123 -0.0160627
-0.0122832 0.00736993 -0.00585815
-0.00188973 -0.00188973 -0.00226767
-0.00321253 0.00075589 0.000944863
-0.0020787 0.00132281 0.00283459
0.00075589 -0.000566918 0.0020787
0.00245664 -0.00359048 0.000188973
-0.00359048 0.00340151 0.00491329
-0.00302356 0.00453534 0.00604712
-0.00075589 0.00321253 0.00529123
0.00113384 0.000377945 0.00321253
0.00604712 -0.00661404 0.000377945
-0.00548021 0.0020787 0.00151178
-0.00321253 -0.00264562 -0.00548021
0.00566918 0.000944863 0.0147399
-0.00566918 0.00377945 0.00396842
0.00264562 0.00113384 0.0041574
-0.0041574 0.00529123 -0.000944863
0.00075589 -0.00151178 0.0020787
0.00718096 -0.00529123 0.00699199
0.0041574 0.0381725 0.0368497
0.00340151 0.0328812 0.02759
0.00075589 -0.0393063 -0.0391173
-0.000944863 -0.0325033 -0.0287238
0.0281569 -0.340907 -0.210327
-0.0160627 0.0321253 0.390417
-0.00982658 0.362827 -0.233003
-0.0170075 0.0105825 -0.00907068
-0.00869274 0.0109604 -0.00453534
-0.013984 0.00113384 -0.00585815
-0.00548021 0.00434637 0.00548021
-0.0041574 0.00642507 0.0075589
-0.000566918 0.00434637 0.00642507
0.00302356 -0.000944863 0.00245664
0.00340151 -0.0096376 -0.0132281
Vibration 9
-0.00850377 -0.00170075 -0.0062361
-0.00850377 -0.00585815 -0.0149288
-0.00510226 -0.00793685 -0.0175745
0 -0.00604712 -0.0202201
-0.000188973 -0.00113384 -0.0100155
-0.00491329 0.000944863 0.00321253
0.00453534 0.00113384 -0.00642507
-0.0062361 0.00548021 0.0300466
-0.00510226 0.0102045 0.0600933
-0.0096376 -0.00113384 -0.00529123
-0.00113384 -0.00585815 -0.00188973
0.00434637 -0.00925966 -0.000188973
0.000944863 -0.00793685 -0.00188973
-0.00982658 -0.00188973 -0.00642507
-0.0151178 0.00132281 -0.00812582
0.0100155 -0.0134171 0.00113384
-0.00472431 -0.0122832 -0.0126612
-0.013984 0.0300466 0.0332592
-0.013984 0.0311805 0.0447865
-0.00585815 -0.0117163 0.0096376
0.00264562 -0.0557469 -0.0370386
0.00226767 -0.054991 -0.0478101
-0.00566918 -0.0107714 0.0228657
0.0111494 -0.0149288 0.00151178
0.00944863 -0.00132281 -0.00642507
0.00944863 -0.00491329 -0.00604712
0.00699199 0.00944863 -0.00226767
0.00566918 0.0183303 -0.00170075
0.0117163 0.00548021 -0.00359048
0.0020787 0.0183303 0.00132281
-0.00642507 0.0387394 0.00661404
-0.00944863 0.047999 0.00850377
-0.00302356 0.0359048 0.00396842
0.0183303 0.00264562 -0.00510226
0.0130391 -0.020409 -0.0111494
0.0120942 0.000566918 -0.00359048
-0.0103935 -0.00718096 -0.0188973
0.0147399 -0.020976 -0.0168186
0.00170075 -0.00699199 -0.000377945
0.0117163 -0.0132281 0.00283459
-0.013984 0 -0.00850377
-0.0228657 0.00529123 -0.0109604
-0.0211649 0.0631168 0.0593374
-0.020409 0.0657625 0.0814472
0.00925966 -0.089762 -0.0644397
0.00831479 -0.0873053 -0.0820141
-0.0147399 0.034771 0.0512116
-0.00661404 -0.0126612 -0.0257003
0.00510226 -0.0548021 0.0538572
0.0215429 -0.020976 0.00529123
0.00377945 -0.0215429 -0.00491329
0.0102045 -0.00396842 0.00453534
0.00453534 0.00982658 0.000188973
-0.0107714 0.0476211 0.0096376
-0.0168186 0.0648176 0.0130391
-0.00453534 0.0417629 0.00491329
-0.00982658 0.0130391 0.0729434
Vibration 10
0.0185193 0.000377945 -0.00869274
0.0179524 0.0096376 -0.0134171
0.00982658 0.0145509 -0.0100155
0.00283459 0.0105825 -0.0134171
0.00170075 0.00113384 -0.0158737
0.0102045 -0.0041574 -0.00510226
-0.00869274 -0.00491329 -0.0200311
0.00793685 -0.0156847 0.0179524
0.0075589 -0.02759 0.0440306
0.0243775 -0.00283459 -0.00245664
0.0181414 -0.00472431 -0.00113384
0.0119053 -0.000944863 0.00226767
0.0115273 0.00548021 0.00396842
0.0238105 0.00359048 0.00566918
0.0304246 -0.000566918 0.00226767
-0.00132281 0.0126612 0.00491329
0.0100155 0.0134171 0.00132281
-0.0020787 0.0126612 0.0111494
-0.00151178 -0.00699199 0.0134171
0.0119053 -0.0255113 0.00548021
0.0239995 -0.0190862 0.00113384
0.0226767 0.00113384 -0.000566918
0.0130391 -0.0546131 0.00151178
-0.0285349 0.0353379 -0.0041574
-0.0224877 0.00453534 -0.00850377
-0.0257003 0.00642507 -0.00585815
-0.0200311 -0.00132281 -0.000566918
-0.0154958 0.0143619 -0.00170075
-0.0221098 0.0340151 -0.0143619
-0.0111494 -0.0281569 0.00661404
0.00340151 -0.0389284 0.0132281
0.00869274 -0.0198421 0.0130391
-0.00075589 0.00869274 0.0062361
-0.0330702 0.0585815 -0.02759
-0.034393 0.0075589 -0.00434637
-0.0355268 -0.00283459 0.00113384
0.0241885 0.0134171 -0.0171965
-0.0377945 0.00113384 -0.000188973
0.0166296 -0.00831479 -0.00340151
0.00548021 -0.00170075 0.00283459
0.0279679 0.00566918 0.00888171
0.0393063 -0.00132281 0.00283459
-0.0126612 0.0255113 0.0158737
-0.0113384 -0.00888171 0.0200311
0.034204 -0.0306136 -0.00245664
0.0325033 0.00585815 -0.00453534
0.0062361 -0.0534792 0.00566918
0.0336371 -0.0625499 -0.0115273
0.000566918 -0.0729434 0.00661404
-0.048377 0.0451645 -0.00718096
-0.0134171 0.0570697 -0.0160627
-0.0442196 0.020598 0.00434637
-0.0153068 -0.0423299 0.00699199
0.0113384 -0.061983 0.0181414
0.020598 -0.0281569 0.0183303
0.00321253 0.0238105 0.0062361
0.00132281 -0.0372276 0.0565028
Vibration 11
-0.00925966 -0.00396842 0.0423299
-0.00888171 -0.00793685 0.0595264
-0.00510226 -0.0103935 0.0279679
-0.00340151 -0.00850377 -0.00604712
-0.00245664 -0.00396842 -0.0107714
-0.00604712 -0.00264562 0.0107714
0.00359048 -0.00151178 -0.0311805
-0.00585815 -0.00170075 0.00850377
-0.00548021 0.00188973 0.00680301
-0.00907068 -0.00472431 0.0374166
-0.00075589 0.00774788 0.027779
0.00359048 0.00585815 0.00982658
-0.00170075 -0.00982658 0.00170075
-0.00925966 -0.0234326 0.0111494
-0.0128501 -0.0202201 0.0291018
0.00321253 -0.0100155 -0.0183303
-0.00548021 -0.00774788 0.0190862
0.00831479 -0.0128501 0.00245664
0.00812582 -0.00396842 -0.0109604
-0.00585815 0.0109604 -0.00699199
-0.0194642 0.0156847 0.00869274
-0.0185193 0.00548021 0.0211649
-0.00680301 0.0224877 -0.020976
-0.00736993 -0.0257003 -0.0325033
0.0096376 -0.00340151 -0.0202201
0.0100155 -0.0175745 -0.020787
0.0117163 -0.0124722 -0.0151178
0.00869274 0.0200311 -0.0141729
0.00566918 0.0300466 -0.0262672
0.0154958 -0.0281569 -0.0062361
0.0151178 -0.00736993 0.00661404
0.0102045 0.0298577 0.0111494
0.00812582 0.0428968 0.00151178
-0.00132281 0.0563138 -0.0432747
0.00718096 -0.0230547 -0.0221098
0.013795 -0.000944863 -0.00453534
-0.0122832 -0.0102045 0.0876833
0.00510226 -0.0309915 -0.0236216
0.00302356 0.0198421 0.034204
0.0103935 0.0158737 0.0020787
-0.0126612 -0.0360938 0.00510226
-0.0194642 -0.0311805 0.0368497
0.0200311 -0.0238105 0.000566918
0.0188973 -0.00850377 -0.0239995
-0.0306136 0.0270231 0.0111494
-0.0289128 0.00831479 0.0323143
0.00529123 0.020787 -0.0283459
-0.0151178 0.0255113 -0.0185193
-0.0113384 0.0308025 -0.0281569
-0.00340151 -0.020598 -0.0496998
-0.0100155 -0.0292908 -0.0306136
-0.0156847 -0.0376055 -0.0287238
0.0185193 -0.0566918 -0.00869274
0.0175745 -0.0188973 0.0132281
0.00869274 0.047999 0.0221098
0.00548021 0.0706758 0.00453534
-0.0062361 -0.00340151 0.00736993
Vibration 12
0.0132281 -0.0103935 0.00453534
0.0134171 -0.0120942 0.00907068
0.0145509 -0.0122832 0.0103935
0.0162516 -0.0105825 0.00869274
0.0168186 -0.0096376 0.00283459
0.0162516 -0.00907068 0.00472431
0.00925966 -0.0141729 -0.00510226
0.0158737 -0.00510226 0.00736993
0.0166296 -0.000566918 0.0107714
-0.000377945 -0.0020787 -0.00226767
0.0109604 -0.0115273 0.00510226
-0.0115273 0.00188973 -0.00264562
-0.0419519 0.0226767 -0.0162516
-0.0595264 0.0355268 -0.0257003
-0.0391173 0.0228657 -0.0188973
-0.0636838 0.0355268 -0.0228657
0.0151178 -0.0105825 0.0075589
0.0221098 -0.00453534 0.00699199
0.0221098 0.0020787 0.00226767
0.0154958 0.00264562 -0.0020787
0.00869274 -0.00434637 -0.00245664
0.00907068 -0.0105825 0.00264562
0.0151178 0.0115273 -0.00661404
0.0791795 -0.0487549 0.0400622
-0.00982658 -0.00453534 -0.00453534
-0.0130391 0.0124722 -0.00075589
-0.0109604 0.00869274 0.000944863
-0.00661404 0.00661404 0
-0.00850377 0.0120942 -0.00491329
-0.00869274 0.00170075 0.00340151
-0.00075589 -0.00907068 0.00377945
0.00453534 -0.0113384 0.00188973
0.00113384 -0.00188973 0.000188973
-0.0124722 0.0251334 -0.0130391
-0.0168186 0.013606 -0.000188973
-0.0281569 -0.0145509 -0.00548021
0.0126612 -0.0122832 0.0109604
-0.0177634 0.0134171 0.00283459
0.0379835 -0.0300466 0.0171965
-0.00302356 -0.00491329 0.00245664
-0.0912738 0.0563138 -0.0394953
-0.0531013 0.0328812 -0.0260782
0.027779 -0.00510226 0.0105825
0.0270231 0.00699199 0.00245664
0.00302356 -0.00434637 -0.00661404
0.0041574 -0.0149288 0.00302356
0.020409 0.0171965 -0.00642507
0.00850377 0.013606 -0.0107714
0.0158737 0.0113384 -0.0062361
0.109793 -0.0676522 0.0546131
0.0529123 -0.112061 0.135115
0.1748 -0.0253223 -0.0258892
-0.0128501 0.00359048 0.00472431
0.00170075 -0.0162516 0.00510226
0.0113384 -0.020598 0.00170075
0.00491329 -0.00283459 -0.00113384
0.0153068 0.00321253 0.0166296
Vibration 13
-0.0041574 -0.0075589 0.00925966
-0.00321253 -0.0181414 0.00491329
0.00736993 -0.0247554 -0.00396842
0.0196532 -0.0170075 -0.000944863
0.0217318 -0.00661404 0.00680301
0.0100155 -0.00151178 0.00736993
0.0154958 -0.00982658 0.00907068
0.0117163 0.0332592 -0.000188973
0.0166296 0.0848487 -0.0181414
-0.00888171 -0.00510226 0.00888171
-0.013606 0.00170075 0.00321253
-0.00510226 -0.00340151 0.00170075
0.00642507 -0.0156847 0.00548021
0.00888171 -0.0217318 0.0096376
0.000944863 -0.0162516 0.0113384
0.020409 -0.0236216 0.00472431
0.00793685 -0.0340151 -0.0162516
0.0128501 -0.0272121 -0.0143619
0.0122832 -0.0102045 -0.00661404
0.00699199 -0.000566918 -0.00113384
0.00264562 -0.0211649 -0.0158737
0.00340151 -0.0372276 -0.0230547
0.00585815 0.0372276 0.0247554
-0.0245664 -0.00359048 -0.0177634
-0.0122832 0.00340151 0.00283459
-0.0168186 0.0351489 0.00548021
-0.0151178 0.0321253 0.00699199
-0.00566918 0.0126612 0.00472431
-0.00869274 0.0179524 0.00434637
-0.013984 0.0296687 0.00699199
0.00132281 -0.0020787 0.000566918
0.0156847 -0.0289128 -0.00604712
0.0100155 -0.0179524 -0.00377945
-0.0156847 0.0317474 -0.00226767
-0.0166296 0.0236216 0.00151178
-0.041385 -0.0120942 -0.00566918
-0.0111494 -0.0230547 0.0062361
-0.0156847 0.0232436 -0.000566918
-0.0228657 0.0109604 0.000188973
-0.00736993 0.0020787 -0.00226767
0.0179524 -0.0309915 0.0124722
0.00321253 -0.0219208 0.0153068
0.0170075 -0.0319364 -0.0158737
0.0158737 -0.00170075 -0.00188973
-0.00113384 -0.020976 -0.0185193
-0.000188973 -0.0487549 -0.0302356
0.00151178 0.0557469 0.0366607
-0.020598 0.0464873 0.0245664
0.0360938 0.0419519 0.0359048
-0.0264562 0 -0.0245664
-0.0217318 0.0105825 -0.0495108
-0.0559359 -0.00736993 0.00472431
-0.0241885 0.0508336 0.0111494
0.00377945 -0.0075589 0.000188973
0.0304246 -0.0585815 -0.0126612
0.0188973 -0.0357158 -0.00812582
0.0200311 0.126045 -0.0075589
Vibration 14
0.00075589 -0.00831479 -0.0309915
0.00170075 -0.0096376 -0.0153068
0.00321253 -0.0107714 0.0294797
0.0041574 -0.00982658 0.0468652
0.00642507 -0.00869274 0.00831479
0.00359048 -0.00718096 -0.00944863
0.00491329 -0.0100155 -0.0154958
0.00396842 0.0162516 0.00245664
0.00793685 0.05518 0.0215429
-0.00434637 -0.00548021 -0.0406291
-0.0187083 -0.0122832 -0.0351489
-0.0166296 -0.0149288 -0.0166296
-0.000377945 -0.00907068 -0.00472431
0.00453534 0.00434637 -0.013984
0.00264562 0.00434637 -0.0321253
0.013606 -0.020787 0.0245664
0.00359048 -0.00170075 0.0383614
0.0181414 0.00736993 0.0334482
0.0183303 0.013795 0.0134171
0.00302356 0.00944863 -0.00188973
-0.0126612 0.0107714 0.0124722
-0.0115273 0.00491329 0.0326923
0.00264562 0.0020787 -0.041196
-0.0117163 0.0188973 0.0245664
0.00264562 -0.0096376 -0.0103935
0.00170075 -0.0103935 -0.00321253
0.00359048 -0.0221098 -0.00529123
-0.00245664 -0.00548021 -0.0041574
-0.00113384 -0.00585815 -0.00925966
0.00699199 -0.0302356 -0.00548021
-0.00226767 -0.00793685 0.00075589
-0.0154958 0.0221098 0.00718096
-0.0134171 0.0198421 0.00453534
0.00245664 -0.00321253 -0.013606
-0.00982658 0.0219208 0.0075589
0.00264562 -0.0096376 -0.00793685
0.00132281 -0.00982658 -0.0300466
-0.013795 0.0243775 0.0224877
-0.0308025 -0.0179524 -0.0449755
-0.0253223 -0.0213539 -0.0117163
0.0120942 0.0132281 -0.0062361
0.00925966 0.0126612 -0.0379835
0.0302356 0.0075589 0.0421409
0.0304246 0.0188973 0.00793685
-0.0253223 0.0134171 0.00566918
-0.0232436 0.00340151 0.041385
0.0243775 -0.00264562 -0.05518
0.00699199 0.000188973 -0.0491329
-0.0245664 0.00188973 -0.0536682
-0.00548021 0.00661404 0.048566
-0.0151178 0.0291018 -0.0170075
-0.0309915 0.0470542 0.0447865
0.0162516 -0.0532903 -0.00925966
-0.000566918 -0.0120942 0.000566918
-0.0260782 0.0461093 0.013795
-0.020976 0.0387394 0.00850377
0.00850377 0.0907068 0.034393
Vibration 15
0.00736993 0.00661404 0.0153068
0.00850377 0.0120942 0.0041574
0.00566918 0.0126612 -0.0181414
0.000188973 0.0105825 -0.0268341
0 0.00170075 -0.00925966
0.00321253 0.00075589 0.00548021
-0.0124722 -0.00359048 -0.0020787
0.00359048 0.0304246 0.00396842
0.0103935 0.0954312 -0.0120942
0.0154958 0.00302356 0.0228657
0.0247554 0.00585815 0.020787
0.0192752 0.0100155 0.0100155
0.00548021 0.0119053 0.00188973
0.00774788 0.00188973 0.00888171
0.0120942 -0.000188973 0.0190862
-0.0168186 0.0270231 -0.0190862
0.00604712 0.0124722 -0.0183303
-0.00302356 0.00642507 -0.0154958
-0.00302356 -0.00170075 -0.00510226
0.00812582 -0.00245664 0.0020787
0.0181414 0.00283459 -0.00151178
0.0171965 0.0102045 -0.0119053
0.00888171 -0.0107714 0.0166296
0.0147399 -0.00340151 -0.0105825
-0.0107714 -0.00604712 -0.0119053
-0.0122832 -0.0287238 -0.00226767
-0.00869274 -0.0357158 -0.00075589
-0.0177634 -0.0102045 0.000944863