[Molden Format]
[FREQ]
-1354.1
13.0
16.9
19.9
22.8
25.9
28.3
31.2
34.4
41.6
44.5
48.6
51.2
53.4
62.3
64.7
65.5
68.2
75.0
81.5
87.9
110.3
128.0
133.9
141.2
155.6
168.6
173.9
182.4
211.8
215.0
223.0
253.9
269.8
291.4
308.3
328.0
343.7
355.1
358.2
361.5
365.7
379.1
400.3
464.5
468.0
474.8
492.2
500.2
520.9
544.1
564.1
570.7
593.9
604.7
614.3
616.6
619.6
627.2
634.5
649.2
677.5
692.7
708.1
719.6
746.1
814.4
817.8
835.7
848.5
880.4
883.2
884.5
893.2
898.7
901.2
935.4
963.6
966.7
974.3
1001.8
1008.8
1010.2
1013.5
1017.8
1019.8
1033.3
1042.3
1068.0
1070.9
1080.7
1081.4
1086.1
1126.6
1164.6
1170.5
1178.6
1183.5
1183.9
1197.8
1217.8
1229.6
1248.4
1252.6
1263.6
1269.0
1275.0
1283.6
1286.8
1295.6
1302.3
1323.1
1331.7
1336.3
1340.2
1349.3
1352.7
1353.6
1363.9
1378.6
1392.7
1393.8
1427.2
1499.4
1512.5
1524.0
1529.9
1546.3
1554.9
1567.6
1596.1
1601.3
1642.1
1644.8
1672.7
1697.1
1699.2
1704.9
1708.0
1708.1
1708.7
2029.9
2145.1
2212.7
2454.4
2651.6
2654.2
2666.2
2673.5
2739.0
2740.0
2745.0
2745.3
2745.7
2746.2
2753.3
2753.4
2756.1
2762.0
2765.7
2766.1
2768.3
2770.2
2774.8
2779.1
       
[FR-COORD]
C -1.12382 -1.56904 -1.90144
C 1.51121 -1.56904 -1.90144
C 2.82476 0.735103 -1.90144
N 1.61723 2.98482 -2.01445
C -0.940139 2.99427 -2.05092
C -2.41035 0.755323 -1.95454
N -2.0581 5.33696 -2.1643
C -5.0758 0.889116 -1.86573
N -7.25787 1.01252 -1.75574
C -2.48612 -3.97523 -1.83171
C -2.00878 -5.79806 -3.69593
C -3.26753 -8.09105 -3.64944
C -5.0125 -8.55592 -1.69943
C -5.50024 -6.76938 0.178012
C -4.22581 -4.47052 0.0874943
O -6.09607 -10.8725 -1.87215
C 5.59605 0.804456 -1.73345
C 6.82796 -0.781591 -0.0158737
C 9.44655 -0.718285 0.182925
C 10.8542 0.920486 -1.33868
C 9.61757 2.50275 -3.0538
C 6.99595 2.45645 -3.24447
C 13.6599 1.01346 -1.12023
C -7.9909 -11.4852 -0.068975
C -4.02871 6.96931 4.34902
C -2.92378 7.41094 -2.1917
C -2.27221 2.26597 4.44558
C 0.27042 2.89922 4.11715
C 3.53284 7.24729 -0.372654
C -3.05172 -0.146076 5.17993
C -1.20376 -1.98005 5.56751
C 1.34492 -1.39934 5.24267
C 2.07416 1.03425 4.53043
O 5.19618 7.50089 -1.72456
O -4.06027 4.01302 3.97731
O -6.16145 6.87804 5.29596
H 2.54792 -3.34746 -1.86951
H 0.80748 4.7948 3.52472
H -0.6529 -5.39479 -5.19788
H -2.94193 -9.52497 -5.08393
H -6.84912 -7.12824 1.67808
H -4.58788 -3.04624 1.53861
H 5.73475 -2.05451 1.18051
H 10.4009 -1.94547 1.52652
H 10.7021 3.79268 -4.23299
H 6.02766 3.72522 -4.55575
H 14.261 2.6819 -0.0298577
H 14.5804 1.14064 -2.97934
H 14.449 -0.652333 -0.16743
H -8.57142 -13.3847 -0.674632
H -9.58356 -10.1699 -0.19313
H -7.19967 -11.5458 1.84003
H -5.04103 -0.570508 5.43032
H -1.75858 -3.88263 6.12687
H 2.7692 -2.84574 5.54786
H 4.07141 1.47833 4.2825
H -6.30016 4.36035 5.06428

[FR-NORM-COORD]
Vibration 1
0 0 0.000377945
0.000188973 0.000188973 -0.000188973
-0.000188973 0 0.000377945
-0.000377945 0.000566918 -0.000377945
0.000566918 -0.00132281 0.00075589
0.000188973 0.000188973 -0.00075589
-0.000377945 0.00170075 -0.000188973
-0.000188973 0.000188973 0.00075589
-0.000188973 0.000188973 -0.000377945
-0.000188973 0 -0.000188973
0 0 0
0 -0.000188973 0
0.000188973 0.000377945 0
-0.000188973 -0.000188973 0
0 0 0
-0.000188973 -0.000188973 0
0.000188973 0 0
0 0 0
0 0 0
-0.000188973 0 0
0 0 0
0 0 0
0.000188973 0 0
0 0 0
0.0767229 -0.100911 -0.0389284
0.000377945 -0.00170075 0
-0.000188973 0.0289128 -0.0120942
0.0096376 -0.00226767 0.00132281
0 0 0
-0.000944863 0.00850377 -0.00359048
-0.0020787 0.00510226 -0.00113384
0.000377945 -0.000188973 0
0.00245664 -0.00113384 0.00075589
0 0 0
0.0430858 0.0313695 -0.00245664
-0.0546131 -0.0580146 0.0149288
-0.000188973 -0.000188973 0.00188973
0.0107714 -0.00869274 -0.000944863
-0.000188973 -0.000377945 0.000377945
0 0.000188973 0.000566918
0.000566918 0.000377945 0.000377945
0.000944863 0.00132281 0.00170075
-0.00113384 0.000944863 0.00151178
-0.000188973 0.000377945 0.000188973
-0.000188973 -0.000377945 0.000377945
0.000188973 -0.000188973 0.000377945
-0.000188973 -0.000188973 0
-0.000188973 0 0.000188973
-0.000188973 0 0
-0.000188973 0.000188973 0.000566918
0.000377945 0.000188973 0
0.000377945 0.000377945 0
0.000188973 0.0168186 -0.00850377
-0.00340151 0.00604712 -0.00075589
-0.0020787 0 -0.000188973
0.00226767 -0.00434637 0.000377945
-0.848298 1.14442 0.448054
Vibration 2
0.00604712 -0.00774788 0.00151178
0.0062361 -0.00472431 -0.000944863
0.00359048 -0.00340151 0.000566918
0.00113384 -0.00434637 0.00661404
0.00113384 -0.00718096 0.00982658
0.00359048 -0.00907068 0.00680301
-0.00170075 -0.00831479 0.0160627
0.00340151 -0.0119053 0.00850377
0.00340151 -0.013984 0.0096376
0.0096376 -0.00982658 -0.00188973
0.0154958 -0.00774788 -0.00245664
0.020598 -0.0103935 -0.00529123
0.0196532 -0.0156847 -0.00718096
0.0132281 -0.0175745 -0.00718096
0.00793685 -0.0145509 -0.00453534
0.0258892 -0.0183303 -0.00925966
0.00396842 -0.000944863 -0.00604712
0.00982658 0.000188973 -0.00925966
0.0103935 0.00170075 -0.0170075
0.00510226 0.0020787 -0.0215429
-0.00075589 0.00113384 -0.0181414
-0.00132281 -0.000377945 -0.0103935
0.00566918 0.00340151 -0.0298577
0.0258892 -0.0241885 -0.0113384
0.041385 0.0508336 0.0309915
-0.00453534 -0.00944863 0.0221098
-0.0241885 0.027401 0.00283459
-0.0149288 -0.00680301 0.00812582
0.00850377 -0.0105825 0.0109604
-0.0585815 0.0357158 -0.0062361
-0.0842818 0.00944863 -0.0075589
-0.075778 -0.0245664 -0.00188973
-0.041196 -0.0328812 0.00529123
0.0020787 -0.00718096 0.00377945
0.000566918 0.0540462 0.00718096
0.0391173 0.0729434 0.0285349
0.00831479 -0.00359048 -0.00491329
0.0119053 -0.0124722 0.0145509
0.0162516 -0.00377945 -0.000944863
0.0253223 -0.00888171 -0.00585815
0.0120942 -0.0211649 -0.00907068
0.00264562 -0.0158737 -0.0041574
0.0141729 -0.000566918 -0.00604712
0.0151178 0.00245664 -0.0194642
-0.00491329 0.00151178 -0.0215429
-0.00585815 -0.000944863 -0.0075589
0.00793685 0.00170075 -0.0283459
0.000188973 0.0075589 -0.0323143
0.00944863 0.0020787 -0.0353379
0.0317474 -0.0257003 -0.0124722
0.0222988 -0.0285349 -0.0122832
0.0241885 -0.0226767 -0.0105825
-0.0650066 0.0616051 -0.0126612
-0.111116 0.0158737 -0.0124722
-0.0961871 -0.0451645 -0.00359048
-0.034771 -0.0595264 0.0096376
0.0041574 0.0774788 0.00850377
Vibration 3
-0.00888171 -0.0130391 -0.00302356
-0.00907068 -0.0109604 -0.00188973
-0.0111494 -0.0096376 0.00264562
-0.0128501 -0.0107714 0.0020787
-0.0128501 -0.0128501 0.00132281
-0.0109604 -0.0141729 0.000566918
-0.0149288 -0.013795 0.00170075
-0.0109604 -0.0170075 0.0041574
-0.0107714 -0.0196532 0.00812582
-0.0075589 -0.0141729 -0.00793685
-0.0153068 -0.00453534 -0.0192752
-0.0149288 -0.00491329 -0.0253223
-0.00604712 -0.0149288 -0.0198421
0.00226767 -0.0245664 -0.00831479
0.00151178 -0.0238105 -0.00245664
-0.00680301 -0.0141729 -0.0270231
-0.0117163 -0.0075589 0.0105825
-0.0166296 -0.00529123 0.0160627
-0.0173855 -0.00188973 0.0266451
-0.0134171 -0.000566918 0.0317474
-0.00850377 -0.00359048 0.0255113
-0.00774788 -0.00699199 0.0147399
-0.0145509 0.00359048 0.0436527
0.000377945 -0.0232436 -0.0226767
0.0308025 0.0296687 0.0268341
-0.0171965 -0.0147399 0.00359048
0.0302356 0.0302356 -0.0041574
0.0304246 0.0349599 0.00566918
-0.0166296 0.0111494 -0.0202201
0.0309915 0.0243775 -0.0226767
0.0319364 0.0239995 -0.0298577
0.0321253 0.0291018 -0.0188973
0.0313695 0.034393 -0.00151178
-0.0183303 0.00132281 -0.0239995
0.0294797 0.0321253 0.00434637
0.0323143 0.0230547 0.0294797
-0.0075589 -0.0102045 -0.00396842
0.0294797 0.0389284 0.0177634
-0.0219208 0.00340151 -0.0230547
-0.0211649 0.00245664 -0.0340151
0.00944863 -0.0326923 -0.00396842
0.00774788 -0.0309915 0.00604712
-0.0200311 -0.00585815 0.0124722
-0.0213539 0 0.0311805
-0.00548021 -0.00283459 0.0291018
-0.0041574 -0.00925966 0.00982658
-0.0215429 0.00566918 0.0444086
-0.00680301 0.00302356 0.0474321
-0.0162516 0.00585815 0.0487549
-0.00302356 -0.0196532 -0.0308025
0.000377945 -0.0217318 -0.00869274
0.00812582 -0.0340151 -0.0262672
0.0308025 0.020598 -0.0311805
0.0326923 0.0194642 -0.0442196
0.0330702 0.0289128 -0.0238105
0.0315584 0.0379835 0.00604712
0.0311805 0.0253223 0.0107714
Vibration 4
-0.00736993 0.00113384 -0.0119053
-0.00718096 0.00151178 -0.00680301
-0.00699199 0.00151178 -0.00888171
-0.00736993 0.00113384 -0.0160627
-0.00699199 0.00075589 -0.0236216
-0.00718096 0.000944863 -0.0232436
-0.00680301 0.000566918 -0.0311805
-0.0075589 0.0020787 -0.0351489
-0.00812582 0.00396842 -0.0464873
-0.00661404 0.000944863 -0.00245664
0.0103935 -0.0168186 0.0192752
0.0130391 -0.0179524 0.0317474
-0.00226767 -0.00113384 0.0221098
-0.0202201 0.0170075 0.000188973
-0.0219208 0.0173855 -0.0120942
0.00283459 -0.00453534 0.0370386
-0.0075589 0.00434637 -0.0020787
-0.0075589 -0.00793685 -0.0132281
-0.00831479 -0.00170075 -0.00453534
-0.00869274 0.0171965 0.0154958
-0.00831479 0.0287238 0.0257003
-0.0075589 0.0221098 0.0170075
-0.00982658 0.0251334 0.0257003
-0.0103935 0.0107714 0.0283459
0.0451645 -0.0041574 0.0173855
-0.00680301 0.000566918 -0.0377945
0.0166296 -0.0134171 -0.00982658
0.0194642 -0.0258892 -0.0120942
-0.00812582 0.0075589 0.0362827
0.00510226 -0.0111494 -0.0147399
-0.00396842 -0.0217318 -0.0217318
-0.00132281 -0.034204 -0.0232436
0.0103935 -0.0362827 -0.0185193
-0.00529123 0.0211649 0.0427078
0.0251334 -0.00245664 -0.00170075
0.0487549 0.00283459 0.0264562
-0.00736993 0.00170075 0
0.0283459 -0.027401 -0.00869274
0.0219208 -0.0300466 0.0260782
0.0266451 -0.0317474 0.0487549
-0.0325033 0.0306136 -0.0075589
-0.0355268 0.0309915 -0.0285349
-0.00680301 -0.0224877 -0.0281569
-0.00869274 -0.0113384 -0.0132281
-0.00869274 0.0430858 0.0410071
-0.00736993 0.0308025 0.0251334
-0.0187083 0.0228657 0.034204
-0.00396842 0.0353379 0.0292908
-0.00774788 0.0239995 0.0219208
-0.00113384 0.00283459 0.0444086
-0.0122832 0.00585815 0.000944863
-0.0258892 0.0332592 0.0355268
0.00340151 -0.00132281 -0.0126612
-0.0132281 -0.020409 -0.0262672
-0.00850377 -0.0423299 -0.0285349
0.0122832 -0.0459203 -0.0196532
0.0321253 0.00604712 0.0113384
Vibration 5
-0.00340151 -0.00774788 -0.00812582
-0.00340151 -0.00925966 -0.0132281
-0.0020787 -0.0100155 -0.0109604
-0.00151178 -0.00944863 -0.00680301
-0.00151178 -0.00793685 -0.00396842
-0.00245664 -0.00718096 -0.00321253
0.000377945 -0.00680301 -0.000944863
-0.00226767 -0.00642507 0.00377945
-0.00188973 -0.0062361 0.0103935
-0.00377945 -0.0075589 -0.0062361
-0.0154958 -0.00321253 -0.0132281
-0.0132281 -0.00453534 -0.00907068
0.00113384 -0.0100155 0.00264562
0.0119053 -0.013606 0.00869274
0.00888171 -0.0120942 0.0041574
0.00340151 -0.0113384 0.00661404
-0.00226767 -0.0100155 -0.0128501
0.00132281 -0.0279679 -0.0321253
0.00170075 -0.0291018 -0.0357158
-0.00151178 -0.0115273 -0.0196532
-0.00510226 0.00812582 0.000944863
-0.00529123 0.00907068 0.00472431
-0.00113384 -0.0134171 -0.0245664
0.020409 -0.0188973 0.0219208
-0.0326923 0.0202201 -0.00302356
0.00377945 -0.00548021 0.00188973
-0.00151178 0.0304246 -0.013795
-0.00472431 0.0427078 -0.0154958
0.00529123 -0.0183303 0.10488
0.0105825 0.0258892 -0.0156847
0.0198421 0.0340151 -0.0198421
0.0166296 0.0462983 -0.0226767
0.00434637 0.0504557 -0.020787
0.0398732 -0.0202201 0.147399
-0.0102045 0.0221098 -0.0115273
-0.0385504 0.00321253 -0.0177634
-0.00472431 -0.0100155 -0.0187083
-0.0145509 0.0461093 -0.013795
-0.0260782 0.00075589 -0.0217318
-0.0221098 -0.00132281 -0.0141729
0.0221098 -0.0175745 0.0171965
0.0170075 -0.0145509 0.00850377
0.00396842 -0.0408181 -0.0432747
0.00434637 -0.0438416 -0.0510226
-0.0075589 0.0228657 0.0149288
-0.00831479 0.0245664 0.0222988
0.00170075 -0.0183303 -0.0187083
-0.00510226 -0.00585815 -0.0260782
0.000377945 -0.0177634 -0.0332592
0.0196532 -0.0190862 0.0236216
0.0162516 -0.0222988 0.0377945
0.0368497 -0.0202201 0.0149288
0.0130391 0.0162516 -0.013984
0.0294797 0.0309915 -0.020976
0.0238105 0.0525344 -0.0266451
0.0020787 0.0591484 -0.0243775
-0.0196532 0.00245664 -0.0258892
Vibration 6
0.00472431 0.000377945 -0.00302356
0.00491329 0 0.00283459
0.00604712 -0.000944863 0.00321253
0.0075589 0 0.00396842
0.0075589 0.00075589 0.000188973
0.0062361 0.00113384 -0.00869274
0.00812582 0.00132281 0.00661404
0.00566918 0.00377945 -0.0257003
0.00510226 0.00680301 -0.0425188
0.00510226 0.000377945 -0.000944863
0.0326923 -0.0170075 0.0230547
0.0355268 -0.0185193 0.0281569
0.0096376 -0.00245664 0.00869274
-0.0188973 0.0151178 -0.0154958
-0.020409 0.0158737 -0.0198421
0.0160627 -0.00604712 0.0168186
0.0062361 -0.00434637 0.00226767
0.0041574 -0.00170075 0.00604712
0.00472431 -0.00907068 0.00170075
0.00718096 -0.0188973 -0.00680301
0.00907068 -0.020409 -0.00944863
0.00850377 -0.0128501 -0.00491329
0.00793685 -0.0281569 -0.0130391
-0.0100155 0.00982658 -0.00491329
-0.041574 0.0020787 0.0583925
0.0075589 0.00132281 0.0156847
-0.020409 0.0105825 0.00850377
-0.0258892 0.0306136 0.0041574
-0.0020787 0.00075589 -0.0213539
-0.00170075 -0.00283459 -0.0162516
0.0117163 0.00453534 -0.0453534
0.00661404 0.0247554 -0.0487549
-0.0120942 0.0374166 -0.0243775
0.000944863 -0.00944863 -0.0196532
-0.0336371 0.00510226 0.0379835
-0.0306136 -0.0128501 0.0816362
0.00453534 -0.000188973 0.00736993
-0.0402512 0.0402512 0.0228657
0.0519675 -0.0294797 0.0370386
0.0574477 -0.0319364 0.0464873
-0.0393063 0.0279679 -0.0306136
-0.0419519 0.0285349 -0.0376055
0.00226767 0.00585815 0.0122832
0.00321253 -0.00718096 0.00453534
0.0109604 -0.027401 -0.0153068
0.0102045 -0.013984 -0.00699199
0.0162516 -0.0266451 -0.0200311
0.00434637 -0.0377945 -0.0154958
0.00396842 -0.027779 -0.00907068
0.00264562 0.00226767 0.00680301
-0.0103935 0.00566918 -0.0432747
-0.0385504 0.0319364 0.0075589
0.0020787 -0.0183303 -0.0126612
0.0262672 -0.00585815 -0.0661404
0.0171965 0.0306136 -0.0706758
-0.0158737 0.0531013 -0.0281569
-0.0226767 -0.0120942 0.0655735
Vibration 7
-0.013984 0.0188973 -0.0185193
-0.0141729 0.0132281 -0.0198421
-0.00869274 0.0100155 -0.00869274
-0.00340151 0.0130391 -0.00264562
-0.00359048 0.0185193 -0.00396842
-0.00888171 0.0217318 -0.00982658
0.00151178 0.0213539 0.0020787
-0.00850377 0.0264562 -0.00491329
-0.00812582 0.0296687 -0.000377945
-0.013795 0.0187083 -0.0196532
-0.0224877 0.0249444 -0.0281569
-0.00585815 0.0160627 -0.0168186
0.020787 0.00075589 0.00359048
0.0228657 -0.00170075 0.0062361
0.00472431 0.00812582 -0.00585815
0.0432747 -0.0107714 0.0185193
-0.00907068 -0.00151178 0.000188973
-0.0230547 -0.0153068 -0.00226767
-0.0234326 -0.0317474 0.00548021
-0.00944863 -0.034204 0.0156847
0.00453534 -0.0194642 0.0192752
0.00472431 -0.00321253 0.0113384
-0.00944863 -0.0534792 0.0222988
0.0878723 -0.0385504 0.0559359
-0.00132281 -0.00491329 0.0020787
0.00604712 0.0234326 0.00736993
-0.00453534 -0.0062361 -0.000566918
-0.00491329 -0.00774788 -0.00548021
0.00113384 0.0124722 -0.0143619
-0.00472431 -0.00566918 0.000944863
-0.00510226 -0.00680301 -0.00264562
-0.00529123 -0.00850377 -0.00774788
-0.00529123 -0.00907068 -0.00907068
-0.00245664 0.0115273 -0.0190862
-0.00434637 -0.00510226 0.00283459
0.00075589 -0.00302356 0.00680301
-0.0181414 0.0105825 -0.027779
-0.00472431 -0.00812582 -0.00604712
-0.041196 0.0359048 -0.0419519
-0.0111494 0.0196532 -0.0215429
0.0389284 -0.0111494 0.0183303
0.00680301 0.0062361 -0.00359048
-0.0340151 -0.013606 -0.0102045
-0.034582 -0.0427078 0.00321253
0.0154958 -0.020976 0.02759
0.0158737 0.00774788 0.013606
0.000188973 -0.0544241 0.0185193
-0.00453534 -0.0657625 0.0238105
-0.0232436 -0.0561249 0.0291018
0.106958 -0.0487549 0.0701088
0.0644397 -0.0642507 0.0840928
0.124911 -0.0226767 0.041196
-0.00453534 -0.00434637 0.00510226
-0.00510226 -0.00642507 -0.00132281
-0.00566918 -0.00944863 -0.0107714
-0.00548021 -0.0102045 -0.0130391
-0.00188973 -0.00302356 0.0075589
Vibration 8
0.0132281 -0.0117163 -0.0075589
0.0130391 -0.0128501 -0.0134171
0.013606 -0.0128501 -0.0117163
0.0134171 -0.0126612 -0.0103935
0.0134171 -0.0120942 -0.00736993
0.0132281 -0.0117163 -0.00377945
0.0132281 -0.0120942 -0.00585815
0.0134171 -0.0124722 0.00359048
0.013606 -0.0141729 0.00925966
0.00869274 -0.00925966 -0.00283459
-0.0200311 -0.0020787 -0.0168186
-0.0317474 0.00434637 -0.0147399
-0.0134171 0.00377945 0.00151178
0.0177634 -0.0041574 0.0171965
0.0283459 -0.0102045 0.0145509
-0.0300466 0.0115273 0
0.0132281 -0.0100155 -0.00718096
0.0149288 -0.0308025 -0.027401
0.0141729 -0.0239995 -0.0190862
0.0122832 0.00453534 0.0100155
0.0111494 0.0247554 0.0294797
0.0120942 0.0168186 0.020598
0.0111494 0.0134171 0.020598
-0.0149288 0.013795 0.0166296
-0.0166296 0.000188973 0.00566918
0.0113384 -0.0128501 -0.00472431
-0.0170075 -0.000188973 0.00774788
-0.0202201 -0.00283459 -0.0224877
-0.00907068 0.0432747 -0.0153068
-0.0103935 0.00302356 0.0251334
-0.00699199 0.00377945 0.0130391
-0.0103935 0.00075589 -0.0179524
-0.0168186 -0.00264562 -0.0359048
-0.0111494 0.0515895 -0.0158737
-0.020976 -0.00075589 0.020787
-0.00774788 0.00585815 0.0262672
0.0119053 -0.0134171 -0.0187083
-0.0253223 -0.00510226 -0.034204
-0.0340151 -0.00132281 -0.0291018
-0.05518 0.0100155 -0.0258892
0.0332592 -0.00529123 0.0308025
0.0515895 -0.0153068 0.0255113
0.0168186 -0.0521564 -0.048377
0.0147399 -0.0406291 -0.034771
0.0096376 0.0462983 0.0517785
0.0111494 0.0317474 0.0353379
0.00113384 0.00585815 0.0376055
0.0168186 0.0338261 0.0247554
0.0147399 0.00774788 0.00812582
-0.0359048 0.0221098 0.0105825
-0.00661404 0.0264562 0.0430858
0.00566918 -0.00472431 0.0075589
-0.00793685 0.00472431 0.0474321
-0.00188973 0.00661404 0.027779
-0.00774788 0.00113384 -0.0281569
-0.0192752 -0.00529123 -0.0612271
-0.0105825 0.00434637 0.0396842
Vibration 9
-0.00321253 0 0.0158737
-0.00321253 0.000566918 0.0175745
-0.00226767 0.000188973 0.0177634
-0.00226767 0.000377945 0.0162516
-0.00188973 -0.000188973 0.0151178
-0.00283459 0.000188973 0.0153068
-0.0020787 0 0.0122832
-0.00264562 0.00245664 0.0147399
-0.00245664 0.00510226 0.0153068
-0.000566918 -0.00170075 0.0113384
0.0255113 -0.00869274 0.0243775
0.0308025 -0.0115273 0.0188973
0.00850377 -0.0075589 0
-0.0177634 -0.00113384 -0.0130391
-0.0213539 0.00132281 -0.00680301
0.0164406 -0.0109604 -0.00359048
-0.0020787 -0.00302356 0.013606
0.00226767 -0.0313695 -0.0156847
0.00359048 -0.0447865 -0.0302356
0.00113384 -0.0279679 -0.0143619
-0.00340151 0.00585815 0.0200311
-0.00453534 0.0177634 0.0338261
0.00321253 -0.0468652 -0.0353379
-0.0103935 -0.00491329 -0.0296687
0.00340151 0.0041574 -0.0175745
-0.00264562 -0.000377945 0.00907068
0.0096376 0.00396842 -0.00793685
0.0117163 0.0041574 0.00925966
-0.0196532 0.0640617 0.00302356
0.00434637 0.00283459 -0.0173855
0.00132281 0.00132281 -0.0103935
0.00359048 0.00113384 0.00585815
0.00869274 0.00245664 0.0154958
-0.0309915 0.0738883 -0.00869274
0.0128501 0.00453534 -0.0173855
-0.00718096 0.000377945 -0.0417629
-0.00359048 0.000377945 0.0179524
0.0156847 0.00529123 0.0164406
0.0417629 -0.0115273 0.0381725
0.0515895 -0.0168186 0.0289128
-0.034582 0.00188973 -0.02759
-0.0410071 0.00529123 -0.0156847
0.00472431 -0.0442196 -0.0268341
0.00680301 -0.069164 -0.0546131
-0.00566918 0.0211649 0.034771
-0.0075589 0.0419519 0.0589595
0.0232436 -0.0546131 -0.034771
-0.0109604 -0.0470542 -0.0423299
0 -0.05518 -0.0470542
0.00132281 -0.00869274 -0.0294797
-0.0102045 -0.0075589 -0.0602823
-0.0394953 0.00529123 -0.0173855
0.00283459 0.00321253 -0.0296687
-0.00264562 0.000188973 -0.0181414
0.00113384 0 0.0107714
0.0103935 0.00188973 0.02759
0.000188973 -0.000377945 -0.0428968
Vibration 10
-0.00680301 -0.000944863 -0.00245664
-0.0062361 -0.00585815 -0.0245664
-0.00132281 -0.00888171 -0.0236216
0.00302356 -0.00604712 -0.0130391
0.00302356 -0.000377945 0.00869274
-0.00170075 0.00264562 0.020409
0.00831479 0.00283459 0.0232436
0.000377945 0.013606 0.061983
0.00283459 0.0251334 0.101289
-0.00774788 -0.000377945 -0.000188973
0.0111494 -0.0120942 0.0154958
0.0162516 -0.0147399 0.0198421
0.000377945 -0.00604712 0.0075589
-0.020787 0.00585815 -0.00944863
-0.0241885 0.0075589 -0.0128501
0.00869274 -0.0103935 0.0149288
-0.00132281 -0.0100155 -0.0219208
-0.00548021 -0.00774788 -0.0164406
-0.0075589 0.00680301 0.00377945
-0.00510226 0.0183303 0.0183303
-0.000188973 0.00925966 0.00661404
0.00132281 -0.00510226 -0.013606
-0.00831479 0.041385 0.0508336
-0.00642507 -0.00245664 0.00188973
-0.00850377 -0.000188973 -0.00585815
0.0171965 0.00661404 0.0368497
-0.00170075 -0.00283459 -0.0149288
-0.00113384 -0.00359048 -0.0122832
0.0309915 0.0130391 -0.0238105
-0.0041574 -0.00661404 -0.0304246
-0.00642507 -0.0124722 -0.0476211
-0.00604712 -0.0141729 -0.0478101
-0.00340151 -0.00944863 -0.0292908
0.0449755 -0.0113384 -0.0111494
0.000566918 0.00170075 -0.00472431
-0.0179524 -0.00377945 -0.0281569
-0.00888171 -0.0075589 -0.0389284
0.00075589 0.000377945 0.00245664
0.0224877 -0.0190862 0.0238105
0.0323143 -0.0234326 0.0323143
-0.0340151 0.013606 -0.0192752
-0.0396842 0.0149288 -0.0239995
-0.00774788 -0.0153068 -0.0266451
-0.0107714 0.0103935 0.00944863
0.00151178 0.0154958 0.0149288
0.00472431 -0.0107714 -0.0213539
-0.0404401 0.00491329 0.124344
0.0122832 0.126234 0.0670853
-0.00075589 0.0122832 -0.0062361
0.00642507 -0.0096376 0.0119053
-0.00982658 -0.00907068 -0.0245664
-0.0245664 0.0162516 0.0100155
-0.00453534 -0.00510226 -0.0292908
-0.00850377 -0.0160627 -0.0612271
-0.00793685 -0.0188973 -0.061983
-0.00302356 -0.0105825 -0.0283459
-0.0107714 -0.00585815 -0.0291018
Vibration 11
0.000566918 0.000944863 0.00075589
0.000377945 0.00170075 0.00604712
-0.000188973 0.0020787 0.00585815
-0.000944863 0.00170075 0.00566918
-0.000944863 0.000944863 0.00113384
-0.000188973 0.000377945 -0.00434637
-0.00170075 0.000566918 0.000944863
-0.00075589 -0.00151178 -0.0171965
-0.00151178 -0.00359048 -0.0294797
0.00075589 0.000944863 -0.000188973
-0.000944863 0.00226767 -0.00170075
-0.000944863 0.00226767 -0.00188973
0.000944863 0.00113384 -0.000566918
0.00245664 0 0.000944863
0.00226767 0.000188973 0.00113384
0.000944863 0.00113384 -0.000944863
0 0.00188973 0.00302356
0.00226767 0.00170075 0.0020787
0.0020787 -0.00132281 -0.00510226
0.00113384 -0.00453534 -0.0113384
-0.00075589 -0.00396842 -0.00793685
-0.0020787 -0.00113384 -0.000944863
0.000377945 -0.0100155 0.000188973
0.00453534 -0.00113384 0.0020787
0.00113384 0.000944863 -0.00340151
-0.00283459 0.000188973 0.00170075
0.00113384 0.00170075 0.00396842
0.000944863 0.00302356 0.00548021
-0.0113384 -0.00680301 -0.00226767
0.0020787 0.00188973 0.00604712
0.00302356 0.00396842 0.0109604
0.00302356 0.00548021 0.0134171
0.00188973 0.00491329 0.0103935
-0.0105825 -0.00736993 -0.00151178
0.000188973 -0.000188973 0.000566918
0.00340151 0.00226767 0.00170075
0.00075589 0.00188973 0.00907068
0.000188973 0.00245664 0.00302356
-0.0020787 0.00321253 -0.00245664
-0.00245664 0.00321253 -0.00321253
0.00377945 -0.000944863 0.00188973
0.00359048 -0.000377945 0.0020787
0.00321253 0.00472431 0.00585815
0.00566918 0.000188973 -0.00642507
-0.0041574 -0.00453534 -0.0117163
-0.00321253 -0.000566918 0.000377945
-0.034204 -0.282325 0.436905
0.00718096 0.49114 0.0393063
0.0251334 -0.245475 -0.43048
0.00510226 -0.00151178 0.00226767
0.00321253 -0.00245664 0.00510226
0.0075589 -0.00132281 0.00075589
0.0020787 0.00075589 0.0041574
0.00377945 0.00434637 0.0130391
0.00377945 0.00718096 0.0173855
0.00188973 0.00604712 0.0119053
0.00264562 0.00226767 0.00548021
Vibration 12
-0.00113384 -0.0107714 -0.0228657
-0.00113384 -0.0128501 -0.0160627
-0.000377945 -0.0132281 0.00604712
0.000944863 -0.0107714 0.0406291
0.00113384 -0.00850377 0.0389284
0.000188973 -0.00982658 -0.0126612
0.00377945 -0.00453534 0.0982658
-0.00151178 -0.0111494 -0.0600933
-0.00396842 -0.0119053 -0.109226
-0.00699199 -0.0075589 -0.0234326
-0.0171965 -0.0160627 -0.0170075
-0.0221098 -0.013606 -0.00245664
-0.0156847 -0.00245664 0.00585815
-0.00869274 0.00831479 -0.00245664
-0.00491329 0.00510226 -0.0173855
-0.0183303 -0.00245664 0.0232436
0.000188973 -0.0100155 -0.00132281
0.00925966 -0.00925966 -0.00774788
0.00925966 0.00566918 -0.00812582
-0.00075589 0.0196532 -0.0020787
-0.0100155 0.0153068 0.000377945
-0.00944863 0 0.000377945
-0.00170075 0.0410071 0.000377945
0.00302356 0.00151178 0.0472432
0.00245664 0.00302356 -0.0536682
0.00982658 -0.000944863 0.166107
0.00434637 -0.000944863 0.000566918
0.00510226 0.00453534 0.0166296
0.0198421 0.0291018 -0.0105825
0.00453534 -0.00566918 -0.0143619
0.00529123 -0.00491329 -0.0151178
0.00585815 0.000188973 -0.00075589
0.00585815 0.00491329 0.0153068
0.020598 0.0020787 -0.0145509
0.00321253 -0.00302356 -0.00132281
0.00585815 0.0175745 -0.0449755
-0.00188973 -0.0132281 -0.0272121
0.00548021 0.00774788 0.0281569
-0.0211649 -0.0257003 -0.0230547
-0.0294797 -0.020598 0.00283459
-0.00604712 0.0187083 0.00245664
0.000944863 0.0132281 -0.0239995
0.0166296 -0.0190862 -0.0115273
0.0164406 0.00680301 -0.0122832
-0.0175745 0.0243775 0.00321253
-0.0168186 -0.00302356 0.00302356
-0.0132281 0.0648176 -0.0294797
-0.000944863 0.0130391 -0.00132281
0.00812582 0.0636838 0.0315584
0.00359048 -0.0041574 0.0650066
-0.00283459 -0.00491329 0.0555579
0.0230547 0.0160627 0.0393063
0.00377945 -0.00944863 -0.0253223
0.00529123 -0.00869274 -0.027779
0.00661404 0.000566918 -0.0020787
0.0062361 0.00869274 0.0262672
0.00793685 0.0124722 0.000188973
Vibration 13
-0.0149288 -0.0041574 0.0179524
-0.0149288 -0.00548021 0.0292908
-0.0143619 -0.00604712 0.0132281
-0.0124722 -0.00642507 -0.0062361
-0.0120942 -0.00548021 -0.00850377
-0.013984 -0.0041574 0.00151178
-0.00812582 -0.00434637 -0.0253223
-0.0141729 -0.0041574 -0.0111494
-0.0149288 -0.00453534 -0.0236216
-0.0134171 -0.00548021 0.0120942
-0.0062361 0.00245664 0.00566918
0.000188973 -0.00075589 -0.00491329
-0.000944863 -0.0128501 -0.00869274
-0.00907068 -0.020598 -0.00340151
-0.0153068 -0.0162516 0.00718096
0.0075589 -0.0160627 -0.0192752
-0.0141729 -0.00359048 0.00888171
-0.00907068 0.0141729 0.0213539
-0.00850377 0.0179524 0.0132281
-0.013606 0.00245664 -0.00831479
-0.0192752 -0.0147399 -0.0202201
-0.0198421 -0.0170075 -0.0107714
-0.0130391 0.00510226 -0.0179524
0.00925966 -0.0321253 -0.0234326
-0.000566918 -0.00736993 -0.0430858
0.00396842 0.000377945 -0.0432747
-0.0115273 -0.0113384 0.0251334
-0.0160627 -0.00170075 0.00831479
0.0818251 0.121509 -0.0268341
0.00226767 -0.0147399 0.0287238
0.0119053 -0.0075589 0.0166296
0.00774788 0.00264562 0.00188973
-0.0062361 0.00548021 -0.00283459
0.133037 0.0453534 0.0224877
-0.020787 -0.0168186 0.0404401
0.0253223 0.0258892 0.0179524
-0.0156847 -0.00566918 0.0464873
-0.0270231 0 0.00548021
-0.00472431 0.0117163 0.00944863
0.00604712 0.00529123 -0.0096376
-0.0105825 -0.0298577 -0.00699199
-0.0215429 -0.0219208 0.0113384
-0.00510226 0.0251334 0.0364717
-0.00377945 0.0326923 0.0232436
-0.0234326 -0.0260782 -0.0362827
-0.0243775 -0.0292908 -0.0187083
-0.0120942 -0.00132281 -0.00850377
-0.0188973 0.0192752 -0.0198421
-0.00774788 -0.000377945 -0.0317474
0.0183303 -0.0323143 -0.0315584
0.00340151 -0.0387394 -0.0190862
0.00793685 -0.0362827 -0.0230547
0.00529123 -0.0226767 0.0396842
0.0228657 -0.0100155 0.0190862
0.0153068 0.00831479 -0.00642507
-0.00944863 0.013606 -0.0151178
0.0119053 0.0177634 0.0916517
Vibration 14
0.000377945 -0.00680301 -0.00510226
0.000566918 -0.00982658 -0.000188973
0.00226767 -0.0107714 -0.00151178
0.00472431 -0.0096376 -0.00510226
0.00529123 -0.00680301 -0.00793685
0.00302356 -0.00529123 -0.00812582
0.00869274 -0.00529123 -0.0120942
0.00321253 -0.0020787 -0.00944863
0.00340151 0.00151178 -0.00831479
-0.00491329 -0.0041574 -0.00529123
-0.0185193 -0.00245664 -0.0102045
-0.0238105 0.000188973 -0.00718096
-0.0143619 0.000566918 0.00151178
-0.00283459 0.000188973 0.00491329
0.000944863 -0.00226767 0.000566918
-0.0190862 0.00245664 0.00548021
0.00226767 -0.00736993 -0.00283459
0.00680301 0.00359048 0.00377945
0.00699199 0.0115273 0.00188973
0.00188973 0.00812582 -0.0062361
-0.00283459 -0.00283459 -0.0130391
-0.00283459 -0.0102045 -0.0107714
0.00170075 0.0171965 -0.00736993
0.00812582 -0.00585815 0.0311805
-0.00491329 -0.0020787 0.120942
0.0111494 -0.00453534 -0.0151178
0.00982658 0.0103935 -0.02759
0.0185193 0.00264562 0.0251334
0.048377 0.0425188 0.0041574
-0.0130391 0.0122832 -0.0461093
-0.0270231 0.00566918 -0.0102045
-0.0187083 -0.0020787 0.0428968
0.00396842 -0.00359048 0.0600933
0.0313695 0.041574 -0.0166296
0.0247554 0.0171965 -0.062361
-0.048377 -0.0685971 0.0175745
-0.00113384 -0.0105825 0.00377945
0.0355268 0.00188973 0.0381725
-0.0245664 -0.00377945 -0.0158737
-0.034393 0.00170075 -0.0109604
0.00264562 0.00188973 0.0102045
0.00812582 -0.0020787 0.00170075
0.0103935 0.00680301 0.0102045
0.0107714 0.020409 0.00718096
-0.00680301 -0.00566918 -0.0196532
-0.00699199 -0.0173855 -0.0145509
-0.00396842 0.013606 0.00113384
0.000944863 0.0302356 -0.00699199
0.00793685 0.0149288 -0.0164406
0.00529123 -0.00661404 0.0366607
0.00245664 -0.0103935 0.054991
0.034582 -0.00604712 0.0202201
-0.0194642 0.0187083 -0.0854156
-0.0445975 0.00680301 -0.0232436
-0.0294797 -0.00680301 0.0706758
0.0103935 -0.0103935 0.101478
-0.0302356 -0.0504557 -0.142485
Vibration 15
-0.00075589 -0.00188973 0.0194642
-0.000377945 -0.00774788 0.0317474
0.00434637 -0.0105825 0.0251334
0.00831479 -0.00869274 0.013606
0.00907068 -0.00302356 0.00321253
0.0041574 0.000566918 0.00736993
0.0153068 -0.00113384 -0.020409
0.0041574 0.00680301 -0.00359048
0.0041574 0.0132281 -0.0120942
-0.00869274 0.0020787 0.0105825
-0.0166296 0.0105825 0.000188973
-0.0217318 0.0130391 -0.00888171
-0.0164406 0.00548021 -0.00585815
-0.0124722 -0.000944863 0.00113384
-0.00982658 -0.00188973 0.00812582
-0.0179524 0.00680301 -0.013606
0.00491329 -0.00793685 0.0171965
0.0181414 -0.00132281 0.0134171
0.0190862 0.00888171 0.00151178
0.00661404 0.0117163 -0.00680301
-0.00661404 0.00434637 -0.0041574
-0.00699199 -0.00585815 0.00774788
0.00718096 0.0239995 -0.0194642
0.0283459 -0.0238105 0.0243775
-0.0120942 0.0126612 0.00170075
0.0232436 0.00188973 -0.0523454
0.00869274 0.000566918 0.0332592
0.00982658 0.00188973 0.0442196
0.00774788 -0.0222988 0.0226767
0.00377945 -0.0124722 -0.0147399
-0.000377945 -0.0262672 -0.0597153
0.000377945 -0.0264562 -0.0532903
0.00548021 -0.0120942 0.00075589
-0.0283459 0.00699199 -0.0164406
0.0128501 0.0117163 0.0663294
-0.0357158 0.020598 -0.0515895
-0.00472431 -0.0100155 0.0423299
0.013795 0.0132281 0.0846597
-0.0183303 0.0149288 -0.000188973
-0.0279679 0.0198421 -0.0171965