[Molden Format]
[FREQ]
-1513.8
12.1
14.8
20.9
26.1
30.8
32.3
37.3
42.2
46.9
50.1
55.7
56.2
60.3
74.4
83.8
96.5
110.5
114.0
129.4
136.4
151.5
162.0
176.8
188.2
190.3
197.1
205.1
242.1
260.2
277.6
300.4
318.7
326.4
329.1
336.9
352.1
352.6
356.6
382.7
390.7
421.5
425.8
476.0
478.0
501.6
516.2
519.8
536.4
560.1
565.6
592.6
600.4
607.6
612.0
617.7
631.3
638.5
639.8
659.2
664.1
695.7
703.8
722.8
750.0
792.3
794.7
795.6
812.9
842.9
857.7
880.9
882.7
891.2
897.7
901.0
902.1
965.7
975.7
990.7
1009.1
1011.0
1011.7
1017.6
1018.1
1022.3
1033.7
1066.2
1070.6
1076.3
1081.4
1105.2
1126.1
1132.4
1153.1
1178.4
1183.4
1186.6
1206.2
1225.8
1247.6
1260.4
1268.3
1270.7
1274.6
1285.1
1286.6
1296.2
1301.6
1303.2
1329.6
1337.6
1339.8
1349.0
1355.2
1356.4
1365.2
1375.3
1380.8
1393.3
1416.0
1429.5
1452.1
1475.8
1500.3
1521.0
1527.6
1529.3
1549.6
1558.7
1595.7
1600.4
1610.6
1649.6
1686.2
1697.2
1699.5
1708.0
1710.0
1761.1
1802.0
1986.1
2251.8
2298.2
2450.7
2651.7
2653.8
2665.8
2673.7
2738.6
2742.5
2743.2
2744.8
2746.3
2747.1
2749.5
2755.7
2759.4
2763.1
2763.7
2765.3
2765.9
2769.3
2769.7
2779.1
       
[FR-COORD]
C -1.68809 -1.78522 1.86232
C 0.944674 -1.78522 1.86232
C 2.24934 0.527045 1.86232
N 1.02782 2.76731 1.93149
C -1.52633 2.78829 1.93905
C -2.9818 0.535359 1.8971
N -2.61406 5.22415 1.85288
C -5.64348 0.658758 1.79165
N -7.82573 0.800299 1.68677
C -3.06117 -4.18537 1.76311
C -2.54263 -5.89387 -0.196343
C -3.84087 -8.15946 -0.349221
C -5.66313 -8.71882 1.50309
C -6.18299 -7.05359 3.48088
C -4.86982 -4.77685 3.58935
O -6.78601 -10.9923 1.13232
C 5.01987 0.6529 1.73023
C 6.32 2.59063 2.97065
C 8.93897 2.73557 2.80227
C 10.2778 0.957902 1.3812
C 8.97336 -0.971886 0.132281
C 6.35761 -1.1276 0.306703
C 13.0788 1.13988 1.15916
C -8.72241 -11.708 2.85197
C -0.80748 7.68797 2.65979
C 3.23162 4.92727 -3.58991
C 0.885526 4.27551 -4.23544
C 0.0844708 1.65823 -4.49471
C 1.70907 -0.23546 -4.76362
C -1.00042 6.2378 -4.58221
C -3.47861 5.65349 -4.76646
C -4.30801 3.04681 -4.67329
C -2.61595 1.14442 -4.56142
O 3.10784 -1.91826 -4.92595
O 5.28122 5.51535 -3.11219
O -0.710726 8.4484 0.457125
H 1.98213 -3.56062 1.8901
H -4.45597 5.28708 2.39693
H -1.11815 -5.42692 -1.61269
H -3.48409 -9.50381 -1.86138
H -7.58479 -7.4905 4.91102
H -5.261 -3.44894 5.11908
H 5.26553 4.00017 4.05308
H 9.94147 4.24905 3.76603
H 10.0074 -2.35063 -0.987949
H 5.35511 -2.62615 -0.694096
H 13.9513 2.04109 2.81361
H 13.6091 2.27693 -0.503423
H 13.9791 -0.717907 0.937115
H -9.31125 -13.5527 2.10119
H -10.2973 -10.3678 2.79245
H -7.96916 -11.9147 4.76664
H -0.333915 8.18799 -4.65855
H -4.91499 7.09724 -5.03536
H -6.33361 2.69191 -4.71902
H -3.20535 -0.826377 -4.52117
H -2.08116 6.49877 -0.504179

[FR-NORM-COORD]
Vibration 1
0.000377945 0.00321253 -0.00132281
0 -0.000944863 -0.000377945
-0.00359048 0.00264562 -0.00170075
0.00699199 0.000944863 0.000377945
-0.0132281 0.0289128 0.00604712
-0.0020787 -0.000566918 -0.00226767
0.020409 -0.0130391 0.0823921
0.00170075 0 -0.000188973
0 0.000188973 0.000188973
-0.000188973 -0.000188973 0
0 0.000377945 0.000188973
-0.000377945 -0.000377945 0
0.000377945 0.00075589 0.000188973
0 -0.000377945 -0.000188973
0.000188973 0.000188973 0
-0.000377945 -0.000566918 0
0.000566918 0.000188973 -0.000188973
0 -0.000377945 0
0.000188973 0 0
-0.000188973 -0.000188973 0
0.000377945 0.000188973 0
-0.000188973 0.000377945 0
0.000377945 0.000188973 0
0.000188973 0 -0.000188973
-0.0428968 -0.0793685 0.0328812
-0.000566918 -0.00170075 -0.000566918
0.00113384 0.000377945 -0.000566918
-0.000566918 0.000566918 -0.000944863
0.000566918 -0.00075589 0.00113384
0.00075589 0.00075589 -0.00151178
0.000188973 0 -0.00132281
-0.000566918 0 -0.000566918
0.000566918 0.000566918 -0.000188973
-0.000377945 0.000566918 -0.000377945
0.000566918 0.000377945 0
-0.027779 -0.0283459 -0.062361
-0.00170075 0.00283459 0.00472431
0.0183303 0.00566918 0.0296687
0.000188973 0.000566918 0.00170075
-0.000188973 0.000377945 0.00113384
0.000188973 0.000188973 -0.000566918
0.000188973 0.00132281 -0.000944863
0.00075589 -0.00377945 0.00075589
0 -0.00132281 0.000188973
0 -0.000188973 0.00075589
-0.00170075 -0.000377945 0.00226767
-0.000566918 -0.000377945 0.000188973
0 -0.000377945 0.000377945
-0.000566918 -0.000188973 0.000377945
-0.000188973 0.000377945 0.000566918
0.000566918 0.000377945 0
0.000188973 0.000566918 -0.000188973
0.00434637 -0.0041574 -0.0264562
-0.0041574 -0.00113384 0.00075589
-0.00075589 -0.000188973 0.00566918
-0.00113384 -0.00132281 0.00453534
0.724521 1.15708 -0.520997
Vibration 2
-0.0103935 -0.013606 -0.00585815
-0.0103935 -0.0143619 -0.00812582
-0.0100155 -0.0143619 -0.0115273
-0.00944863 -0.0141729 -0.013606
-0.0096376 -0.0134171 -0.013606
-0.00982658 -0.0132281 -0.0109604
-0.00869274 -0.0132281 -0.0141729
-0.00982658 -0.013606 -0.0117163
-0.00982658 -0.0141729 -0.0128501
-0.0113384 -0.013606 0.00566918
-0.020409 -0.0196532 0.00869274
-0.0202201 -0.020598 0.0226767
-0.0109604 -0.0153068 0.0334482
-0.00226767 -0.00869274 0.0302356
-0.00264562 -0.00793685 0.0162516
-0.0113384 -0.0173855 0.0470542
-0.0100155 -0.0149288 -0.0113384
-0.00982658 -0.0160627 -0.00982658
-0.0096376 -0.0164406 -0.0096376
-0.0100155 -0.0153068 -0.0111494
-0.0102045 -0.0141729 -0.0126612
-0.0103935 -0.013984 -0.0126612
-0.0100155 -0.0154958 -0.0113384
-0.00188973 -0.0128501 0.0597153
-0.0122832 -0.0158737 0.00151178
0.00736993 0.0489439 0.0281569
0.0171965 0.0391173 0.00264562
0.0336371 0.0357158 -0.0145509
0.0459203 0.0476211 -0.0241885
0.00888171 0.0296687 -0.00604712
0.0130391 0.0162516 -0.0198421
0.0268341 0.0115273 -0.0270231
0.0368497 0.020409 -0.0245664
0.0568808 0.0576366 -0.0325033
0 0.0576366 0.0493218
-0.000566918 -0.00982658 0.00396842
-0.0105825 -0.0143619 -0.0062361
-0.0113384 -0.013795 -0.0232436
-0.0279679 -0.0234326 0
-0.0272121 -0.0255113 0.0253223
0.00453534 -0.00434637 0.0383614
0.0041574 -0.00264562 0.0134171
-0.00944863 -0.0170075 -0.00850377
-0.00944863 -0.0171965 -0.00850377
-0.0105825 -0.0134171 -0.013795
-0.0105825 -0.0130391 -0.013795
-0.00982658 -0.0153068 -0.0115273
-0.0100155 -0.0156847 -0.0115273
-0.0102045 -0.0156847 -0.0111494
-0.00377945 -0.0162516 0.0695419
-0.00340151 -0.0145509 0.0627389
0.00812582 -0.00491329 0.0565028
-0.00113384 0.0330702 -0.000188973
0.00642507 0.00850377 -0.0258892
0.0289128 0.000566918 -0.0349599
0.0478101 0.0171965 -0.0304246
0.00434637 -0.00680301 -0.00850377
Vibration 3
-0.00170075 0.00680301 0.0075589
-0.00170075 0.00510226 0.00151178
-0.000188973 0.0041574 0.00359048
0.000944863 0.00491329 0.0103935
0.00132281 0.0062361 0.0166296
-0.000377945 0.00736993 0.0173855
0.00151178 0.00680301 0.0196532
-0.000566918 0.00944863 0.0266451
-0.000944863 0.0111494 0.034771
-0.00510226 0.00888171 0.00132281
-0.0168186 0.0196532 -0.0111494
-0.0239995 0.0241885 -0.020409
-0.0188973 0.0181414 -0.0173855
-0.00585815 0.00661404 -0.00434637
0.000944863 0.0020787 0.00510226
-0.0285349 0.0247554 -0.0289128
-0.000377945 0.0041574 -0.00188973
0.00113384 0.0100155 -0.0124722
0.000566918 0.0115273 -0.0188973
-0.000944863 0.00661404 -0.0143619
-0.00226767 0.000377945 -0.00321253
-0.00188973 -0.00075589 0.00283459
-0.00170075 0.00869274 -0.0211649
-0.0255113 0.020409 -0.0272121
0.00925966 0.00831479 -0.00510226
-0.0103935 0.0119053 0.00718096
-0.0020787 -0.0175745 0.00661404
0.0317474 -0.027779 0.00453534
0.0559359 -0.00472431 -0.0111494
-0.0283459 -0.0423299 0.00982658
-0.0213539 -0.0746442 0.0188973
0.0128501 -0.0854156 0.0253223
0.0381725 -0.0633058 0.0183303
0.0774788 0.0145509 -0.0243775
-0.0177634 0.0370386 0.00718096
-0.00907068 -0.000566918 -0.00925966
-0.00321253 0.0041574 -0.00510226
0.00642507 0.00888171 0.0359048
-0.020976 0.0245664 -0.0134171
-0.0334482 0.0328812 -0.0302356
-0.00132281 0.00113384 -0.00132281
0.0107714 -0.00642507 0.0151178
0.00245664 0.013606 -0.0156847
0.00151178 0.0164406 -0.027401
-0.00377945 -0.00377945 0.000377945
-0.00226767 -0.00585815 0.0109604
0.00188973 0.00377945 -0.020409
-0.00680301 0.0143619 -0.0188973
-0.000944863 0.0100155 -0.0296687
-0.0360938 0.0285349 -0.0387394
-0.0198421 0.02759 -0.0115273
-0.0194642 0.00302356 -0.0315584
-0.0532903 -0.0338261 0.0041574
-0.041196 -0.0939194 0.0211649
0.0171965 -0.111683 0.0360938
0.0642507 -0.0708647 0.0224877
-0.0190862 -0.00302356 0.0105825
Vibration 4
-0.013984 0.000944863 0.00359048
-0.013984 0.0041574 0.00264562
-0.0168186 0.00585815 0.00226767
-0.0196532 0.00396842 0.00736993
-0.0196532 0.00113384 0.00869274
-0.0170075 -0.000566918 0.00510226
-0.0219208 0.000188973 0.013984
-0.0170075 -0.00396842 0.00359048
-0.0171965 -0.00661404 0.00188973
-0.0111494 -0.000566918 0.00245664
-0.0100155 0.00151178 0.000944863
-0.00699199 -0.000377945 0.000377945
-0.00510226 -0.0041574 0.00113384
-0.0062361 -0.00604712 0.00245664
-0.00925966 -0.00434637 0.00321253
-0.00188973 -0.00548021 0.000377945
-0.0175745 0.0113384 -0.00680301
-0.0183303 0.0245664 -0.0262672
-0.0198421 0.0340151 -0.041196
-0.0202201 0.0296687 -0.0362827
-0.0188973 0.0149288 -0.0145509
-0.0173855 0.00566918 0.000188973
-0.0224877 0.0423299 -0.0542351
0 -0.00925966 0.000944863
-0.027401 -0.00132281 0.0328812
0.0534792 -0.0355268 0.00075589
0.0462983 -0.0187083 0.0102045
0.0298577 -0.0124722 -0.0020787
0.0181414 -0.0224877 -0.00283459
0.0566918 -0.00491329 0.0328812
0.0531013 0.0113384 0.0287238
0.0381725 0.0153068 0.00396842
0.0268341 0.00453534 -0.0100155
0.00718096 -0.0313695 -0.00585815
0.0589595 -0.0478101 -0.00718096
-0.0198421 0.0096376 0.0372276
-0.0120942 0.00529123 0.00151178
-0.0239995 -0.00377945 0.00699199
-0.0117163 0.00434637 0.000377945
-0.00604712 0.00113384 -0.00075589
-0.00472431 -0.00907068 0.00302356
-0.0100155 -0.00585815 0.00434637
-0.0181414 0.027401 -0.0298577
-0.020787 0.0447865 -0.0574477
-0.0194642 0.0103935 -0.0096376
-0.0162516 -0.00604712 0.0166296
-0.0149288 0.0285349 -0.0506447
-0.0387394 0.062172 -0.0459203
-0.0160627 0.048566 -0.0801244
0.0020787 -0.0096376 0
-0.00188973 -0.0113384 0.00245664
0.00113384 -0.00944863 0.000377945
0.0674632 -0.0075589 0.0525344
0.0614161 0.0222988 0.0427078
0.0360938 0.027401 -0.00245664
0.0149288 0.00774788 -0.0279679
-0.0119053 0.0115273 0.0219208
Vibration 5
0.00585815 -0.00907068 0.0132281
0.00604712 -0.00793685 0.020787
0.00585815 -0.00774788 0.0109604
0.00453534 -0.00793685 0.00264562
0.00472431 -0.00869274 0
0.00529123 -0.00907068 0.00170075
0.0041574 -0.00907068 -0.00642507
0.00585815 -0.00888171 -0.00982658
0.0062361 -0.00812582 -0.0200311
0.0062361 -0.00907068 0.0122832
0.0294797 -0.0215429 0.0291018
0.0255113 -0.0187083 0.0226767
-0.00321253 -0.00340151 -0.00113384
-0.0245664 0.00718096 -0.0156847
-0.0190862 0.00377945 -0.00850377
-0.00680301 -0.000566918 -0.00718096
0.00529123 -0.00510226 0.00264562
0.00548021 0.0175745 -0.0325033
0.00396842 0.0241885 -0.047999
0.00302356 0.00661404 -0.0270231
0.00359048 -0.0177634 0.0105825
0.00491329 -0.0232436 0.0249444
0.00113384 0.0153068 -0.0447865
-0.0423299 0.0198421 -0.0385504
0.00151178 -0.00793685 -0.00510226
-0.00812582 0.0154958 0.0141729
-0.00510226 0.0103935 0.00850377
-0.00245664 0.00850377 0.0192752
-0.000377945 0.00718096 0.0400622
-0.00510226 0.0075589 -0.00944863
-0.00377945 0.00510226 -0.0175745
-0.00245664 0.00491329 -0.00982658
-0.00170075 0.00661404 0.00736993
0.000188973 0.00604712 0.0583925
-0.0105825 0.0200311 0.0188973
0.00736993 -0.0105825 -0.00566918
0.00642507 -0.0075589 0.0321253
0.00264562 -0.00869274 -0.0113384
0.0504557 -0.0328812 0.0462983
0.0432747 -0.02759 0.034771
-0.0453534 0.0181414 -0.0326923
-0.0357158 0.0115273 -0.0194642
0.00604712 0.0306136 -0.048377
0.00359048 0.0428968 -0.0769118
0.00264562 -0.0325033 0.02759
0.00529123 -0.041574 0.0517785
0.00850377 0.0120942 -0.0468652
-0.0132281 0.0232436 -0.0440306
0.00604712 0.0192752 -0.0572587
-0.0410071 0.0202201 -0.0406291
-0.0325033 0.0298577 -0.0725655
-0.0776677 0.0236216 -0.0241885
-0.00604712 0.0075589 -0.0154958
-0.00359048 0.00302356 -0.0296687
-0.0020787 0.00340151 -0.0185193
-0.00075589 0.00642507 0.0134171
0.00982658 -0.0119053 -0.00699199
Vibration 6
-0.00661404 0.00472431 0.000944863
-0.00699199 0.00170075 -0.000566918
-0.00396842 0.000188973 -0.00188973
-0.00264562 0.00132281 -0.00453534
-0.00264562 0.00396842 -0.00188973
-0.00491329 0.00529123 0.00472431
0 0.00491329 -0.0075589
-0.00548021 0.00529123 0.0173855
-0.00604712 0.00377945 0.0298577
-0.00736993 0.00510226 -0.00491329
-0.0349599 0.0296687 -0.0334482
-0.0311805 0.027779 -0.0381725
0.00226767 0.00113384 -0.0132281
0.0283459 -0.0219208 0.0128501
0.0226767 -0.0185193 0.0166296
0.00510226 0.000566918 -0.0190862
-0.00396842 -0.00283459 -0.00226767
-0.00377945 0.0188973 -0.0359048
-0.00359048 0.0145509 -0.0355268
-0.00245664 -0.0130391 0
-0.0020787 -0.0349599 0.0334482
-0.00245664 -0.0289128 0.0313695
-0.00188973 -0.0202201 0.00245664
0.0470542 -0.0326923 0.013984
0.00283459 0.00472431 -0.013984
0.000566918 0.00642507 0.00321253
0.00132281 0.00529123 0.00151178
-0.000188973 0.00491329 0.0117163
-0.000944863 0.000944863 0.034204
0.00434637 0.00585815 -0.0119053
0.00453534 0.00736993 -0.0198421
0.00188973 0.00850377 -0.0158737
-0.000377945 0.00736993 -0.00113384
-0.00302356 -0.00245664 0.0534792
0 0.00718096 0.00510226
0.00396842 -0.00113384 -0.0160627
-0.0100155 -0.000188973 -0.00151178
0.000188973 0.00812582 -0.00736993
-0.0589595 0.0496998 -0.0508336
-0.0529123 0.0462983 -0.0597153
0.0527234 -0.0419519 0.0306136
0.0421409 -0.0353379 0.0359048
-0.0041574 0.0389284 -0.061983
-0.00396842 0.0321253 -0.0625499
-0.00132281 -0.0565028 0.0606602
-0.00170075 -0.0455424 0.05518
-0.0041574 0.00491329 -0.0100155
0.00283459 -0.0470542 -0.0143619
-0.00359048 -0.0247554 0.0336371
0.0440306 -0.0283459 0.00529123
0.0362827 -0.0430858 0.0627389
0.0890061 -0.0493218 -0.00434637
0.00604712 0.00510226 -0.0147399
0.00699199 0.00793685 -0.0292908
0.00188973 0.0100155 -0.0255113
-0.00245664 0.00793685 0.00226767
0.00132281 -0.0020787 -0.0109604
Vibration 7
-0.0173855 0.0173855 -0.00113384
-0.0170075 0.0126612 0.00283459
-0.0113384 0.00907068 0.00245664
-0.00604712 0.0119053 0.00529123
-0.00604712 0.0168186 0.00566918
-0.0117163 0.0202201 -0.000188973
-0.00113384 0.0194642 0.0109604
-0.0111494 0.0289128 -0.0062361
-0.0103935 0.0372276 -0.0117163
-0.0141729 0.0160627 -0.00661404
0.0239995 0.00226767 0.0149288
0.0442196 -0.00925966 0.0179524
0.0241885 -0.00699199 -0.00075589
-0.020598 0.0103935 -0.027401
-0.0391173 0.0213539 -0.0298577
0.0540462 -0.0234326 0.00944863
-0.0111494 -0.00151178 -0.00245664
-0.000188973 -0.00132281 -0.0145509
0.000566918 -0.0162516 -0.0170075
-0.00944863 -0.0317474 -0.00680301
-0.020598 -0.0311805 0.00377945
-0.0211649 -0.0156847 0.00548021
-0.00831479 -0.0514005 -0.0075589
0.0464873 -0.0308025 -0.00226767
0.00642507 0.0153068 0.00642507
-0.00113384 0.00302356 0.000188973
-0.000944863 -0.00113384 0.0041574
0.0041574 -0.00245664 0.00245664
0.0075589 0.00132281 -0.00396842
-0.00604712 -0.00472431 0.0109604
-0.00529123 -0.0100155 0.0162516
0.00075589 -0.0119053 0.0151178
0.00510226 -0.00831479 0.00831479
0.0107714 0.00434637 -0.0096376
-0.00132281 0.00661404 -0.00321253
0.00075589 0.0160627 0.0062361
-0.020787 0.0103935 0.00604712
0.00075589 0.0230547 0.0168186
0.0394953 0 0.0296687
0.075967 -0.020787 0.0359048
-0.0398732 0.0145509 -0.0449755
-0.0725655 0.0330702 -0.048377
0.00793685 0.0102045 -0.0215429
0.00907068 -0.0160627 -0.0260782
-0.0283459 -0.0427078 0.0107714
-0.0294797 -0.0153068 0.0130391
-0.00472431 -0.0171965 -0.0281569
-0.000188973 -0.0939194 -0.0340151
-0.0187083 -0.061983 0.0374166
0.0833369 -0.0496998 0.0154958
0.0266451 -0.0555579 -0.0376055
0.0279679 0.00604712 0.00888171
-0.0102045 -0.00340151 0.0111494
-0.00907068 -0.0128501 0.020976
0.00132281 -0.0162516 0.0198421
0.0096376 -0.0096376 0.00736993
-0.00604712 0.0192752 0.0100155
Vibration 8
-0.00245664 0.0105825 0.00907068
-0.00226767 0.00812582 0.0100155
-0.000566918 0.00680301 0.00774788
0.00188973 0.00812582 0.00321253
0.00170075 0.0105825 0.00151178
-0.000188973 0.0117163 0.00850377
0.00396842 0.0111494 -0.0122832
-0.000377945 0.0141729 0.0143619
-0.000566918 0.0162516 0.020787
-0.00170075 0.0105825 0.00396842
0.00245664 0.0160627 0
0.00774788 0.013606 -0.00529123
0.00925966 0.00510226 -0.00642507
0.00359048 0.000377945 -0.00396842
-0.00188973 0.00340151 0.00132281
0.0166296 0.0020787 -0.0107714
-0.000566918 0.00302356 0.00226767
0.00774788 -0.0177634 0.0251334
0.00699199 -0.0173855 0.0119053
-0.00321253 0.00491329 -0.0257003
-0.0119053 0.0236216 -0.0455424
-0.0107714 0.0215429 -0.0304246
-0.00510226 0.0100155 -0.0457314
0.0224877 -0.00982658 -0.00925966
0.00925966 0.0154958 -0.0376055
-0.0158737 -0.0302356 0.096376
-0.000377945 -0.020787 0.0298577
-0.00699199 -0.0166296 0.0100155
-0.0128501 -0.0190862 -0.00566918
0.0156847 -0.0134171 -0.0177634
0.0154958 -0.00302356 -0.048377
0.00132281 0.00170075 -0.034393
-0.00888171 -0.00585815 -0.00604712
-0.0185193 -0.0232436 -0.0143619
-0.027401 -0.0366607 0.152123
0.00529123 -0.00396842 -0.0445975
-0.00321253 0.00736993 0.0105825
0.00566918 0.0170075 -0.00699199
0.00170075 0.0224877 0.00151178
0.0113384 0.0175745 -0.00812582
0.00359048 -0.00566918 -0.00585815
-0.0062361 -0.000377945 0.00340151
0.0151178 -0.0332592 0.0523454
0.013984 -0.0336371 0.0298577
-0.0196532 0.0398732 -0.0727545
-0.0177634 0.0349599 -0.0434637
0.00774788 -0.0120942 -0.0404401
-0.0194642 0.0330702 -0.034393
-0.00566918 0.013606 -0.0786126
0.0300466 -0.0113384 -0.0115273
0.0162516 -0.0171965 -0.00472431
0.0260782 -0.0096376 -0.0105825
0.0270231 -0.0177634 -0.0255113
0.0266451 0.00132281 -0.08277
0 0.0117163 -0.0478101
-0.0179524 -0.00264562 0.00453534
-0.00264562 -0.00888171 -0.0241885
Vibration 9
-0.00472431 -0.00340151 0.0306136
-0.00453534 0.00075589 0.013795
-0.0075589 0.00226767 -0.000566918
-0.00944863 0.00132281 -0.0120942
-0.00944863 -0.0020787 0.00396842
-0.00718096 -0.00472431 0.0385504
-0.0119053 -0.0041574 -0.0171965
-0.00907068 -0.00699199 0.0882502
-0.0115273 -0.00774788 0.136627
0.00170075 -0.00718096 0.0283459
0.0239995 -0.00661404 0.0330702
0.0291018 -0.00812582 0.0181414
0.00907068 -0.0105825 -0.0020787
-0.0103935 -0.013984 -0.00453534
-0.0132281 -0.0128501 0.0115273
0.0128501 -0.00982658 -0.0185193
-0.0075589 0.0020787 -0.00283459
-0.00642507 -0.00396842 0.00510226
-0.00566918 -0.0096376 0.0113384
-0.00680301 -0.00850377 0.00888171
-0.00869274 -0.000188973 -0.0020787
-0.00925966 0.00491329 -0.00774788
-0.00548021 -0.0171965 0.0181414
-0.0236216 -0.00151178 -0.0565028
-0.0130391 0.0062361 -0.041385
0.0177634 0.0100155 -0.0270231
0.0162516 0.0134171 -0.0245664
0.00982658 0.0143619 -0.0145509
0.00529123 0.0109604 -0.0183303
0.0200311 0.0160627 -0.0296687
0.0183303 0.020787 -0.0219208
0.0124722 0.0230547 -0.00661404
0.00850377 0.0198421 -0.0020787
0.0020787 0.00869274 -0.0219208
0.0196532 0.00661404 -0.0311805
-0.0162516 -0.0134171 -0.0478101
-0.00132281 0.00264562 0.0122832
-0.0113384 0 -0.0156847
0.0374166 -0.00377945 0.0470542
0.0466762 -0.00680301 0.0211649
-0.0232436 -0.0173855 -0.0181414
-0.0283459 -0.0164406 0.0107714
-0.00566918 -0.00491329 0.00699199
-0.0041574 -0.0153068 0.0185193
-0.00944863 0.00188973 -0.00529123
-0.0109604 0.0107714 -0.0149288
-0.00888171 -0.00774788 0.0149288
0.0041574 -0.0309915 0.0119053
-0.0100155 -0.0215429 0.0351489
-0.0200311 0.00302356 -0.0706758
-0.0149288 0.00736993 -0.0833369
-0.0604712 -0.00907068 -0.0427078
0.0238105 0.0143619 -0.0379835
0.0213539 0.0228657 -0.0268341
0.0117163 0.02759 0.00075589
0.00434637 0.0213539 0.0100155
-0.0141729 -0.0251334 -0.0296687
Vibration 10
0.0107714 0.000566918 -0.00661404
0.0105825 0.00680301 -0.0147399
0.00566918 0.00982658 -0.0177634
0.000566918 0.00718096 -0.0130391
0.000566918 0.00075589 -0.00359048
0.00566918 -0.00245664 -0.00188973
-0.00831479 -0.00245664 0.00812582
0.00510226 -0.00888171 0.00585815
0.00434637 -0.0145509 0.0122832
0.013795 -0.00132281 -0.000188973
0.0120942 -0.00566918 0.00321253
0.00718096 -0.00302356 0.00604712
0.00359048 0.00434637 0.00472431
0.00888171 0.00661404 0.00434637
0.0143619 0.00340151 0.0020787
-0.00529123 0.00869274 0.00510226
0.00548021 0.0124722 -0.0185193
0.00302356 0.0251334 -0.0359048
0.00472431 0.0171965 -0.0224877
0.00907068 -0.00472431 0.00982658
0.0109604 -0.013795 0.020787
0.0096376 -0.0041574 0.00529123
0.0120942 -0.0268341 0.0308025
-0.0219208 0.0258892 -0.00661404
-0.020409 0.00188973 0.0160627
-0.00718096 -0.0141729 0.0219208
-0.00548021 -0.0075589 0.00907068
-0.00604712 -0.00491329 -0.0154958
-0.00585815 -0.00396842 -0.0215429
-0.00283459 -0.00321253 0.0198421
-0.00245664 0.000188973 0.00529123
-0.00453534 -0.000188973 -0.0221098
-0.0062361 -0.00226767 -0.0321253
-0.00548021 -0.00302356 -0.0268341
-0.00869274 -0.0190862 0.034393
-0.0309915 0.0149288 0.0198421
0.0143619 0.00888171 -0.0171965
-0.0075589 -0.0120942 0.0128501
0.013606 -0.0105825 0.00321253
0.00491329 -0.00604712 0.00812582
0.00869274 0.0107714 0.00548021
0.0183303 0.00529123 0.00151178
0.000566918 0.0400622 -0.0576366
0.00188973 0.0270231 -0.0349599
0.0147399 -0.0283459 0.0423299
0.0115273 -0.0103935 0.0128501
-0.00604712 0.13058 -0.0457314
0.0364717 -0.188784 -0.0719986
0.0096376 -0.0514005 0.222043
-0.0325033 0.0302356 -0.00907068
-0.0105825 0.0389284 -0.0170075
-0.0353379 0.020787 -0.00188973
-0.00113384 -0.00283459 0.0396842
-0.000566918 0.00359048 0.0132281
-0.00453534 0.00151178 -0.0340151
-0.00774788 -0.00226767 -0.0529123
-0.0213539 0.0117163 0.0130391
Vibration 11
-0.00151178 -0.00226767 0.0105825
-0.00170075 -0.00283459 0.0192752
-0.0020787 -0.00264562 0.0179524
-0.00151178 -0.00245664 0.0124722
-0.00188973 -0.0020787 0.00359048
-0.00151178 -0.00226767 0.00132281
-0.00075589 -0.00226767 -0.00680301
-0.00113384 -0.00359048 -0.0130391
-0.000566918 -0.00585815 -0.0266451
-0.0020787 -0.00188973 0.00699199
-0.00680301 0.00491329 0
-0.00793685 0.00585815 -0.00529123
-0.00396842 0 -0.00302356
0.000944863 -0.00680301 0.00396842
0.00151178 -0.00718096 0.00869274
-0.00529123 0.00170075 -0.00907068
-0.0020787 -0.00245664 0.0151178
0.00188973 -0.0162516 0.0308025
0.00170075 -0.0117163 0.0187083
-0.00491329 0.0075589 -0.0102045
-0.0100155 0.0185193 -0.0236216
-0.00793685 0.0126612 -0.0100155
-0.00661404 0.00472431 -0.0336371
0.00245664 -0.00699199 -0.00396842
-0.000566918 0.000377945 -0.0115273
0.00718096 0.0075589 -0.0102045
0.00642507 0.0041574 -0.00359048
0.00529123 0.00302356 0.0130391
0.00396842 0.00170075 0.0132281
0.00585815 0.00226767 -0.0128501
0.00529123 0.00132281 -0.00226767
0.00510226 0.0020787 0.0194642
0.00510226 0.00264562 0.0270231
0.00245664 0.000566918 0.013606
0.00812582 0.0102045 -0.0168186
0.00566918 -0.00850377 -0.0141729
-0.00132281 -0.00245664 0.0247554
-0.0020787 0.000377945 -0.0117163
-0.00925966 0.00925966 -0.00113384
-0.0119053 0.0111494 -0.0109604
0.00396842 -0.0115273 0.00548021
0.00472431 -0.0119053 0.0134171
0.00642507 -0.0291018 0.0515895
0.00396842 -0.0217318 0.0319364
-0.0130391 0.0328812 -0.0444086
-0.0120942 0.020976 -0.0183303
-0.0103935 0.264184 -0.173855
-0.0156847 -0.24642 -0.208248
0.00491329 -0.0245664 0.251145
0.00170075 -0.00491329 -0.00869274
0.000566918 -0.00869274 0.00699199
0.0100155 -0.0132281 -0.00774788
0.00585815 0.00151178 -0.0279679
0.00491329 -0.000377945 -0.00944863
0.00472431 0.00226767 0.0292908
0.00491329 0.00302356 0.0438416
0.00604712 -0.0113384 -0.0102045
Vibration 12
0.00151178 -0.00302356 -0.00566918
0.00132281 -0.000566918 -0.00396842
-0.00113384 0.00113384 -0.00925966
-0.00377945 -0.000377945 -0.0149288
-0.00396842 -0.00245664 -0.0173855
-0.00132281 -0.00453534 -0.0128501
-0.00510226 -0.00359048 -0.0270231
-0.00113384 -0.00925966 -0.0187083
-0.00113384 -0.0145509 -0.0255113
0.00302356 -0.0041574 -0.00264562
-0.00113384 -0.00377945 -0.00396842
-0.00264562 -0.00283459 -0.00283459
0 -0.00264562 0
0.00566918 -0.00377945 0.00264562
0.00699199 -0.00453534 0.00113384
-0.00321253 -0.000944863 0.000188973
-0.00132281 0.00434637 -0.00812582
-0.00661404 0.0236216 -0.0319364
-0.00642507 0.0234326 -0.0251334
0.000188973 0.00188973 0.0075589
0.00566918 -0.0149288 0.0283459
0.00472431 -0.0124722 0.0185193
0.00151178 -0.00132281 0.0221098
-0.00548021 0.00283459 -0.00075589
-0.00736993 0.000944863 -0.0319364
0.0075589 -0.00151178 0.020787
0.0115273 0.00226767 0.00302356
-0.00075589 0.00264562 0.0355268
-0.0115273 0.00226767 -0.027401
0.0190862 0.00340151 -0.0326923
0.0134171 0.00982658 0.0190862
0.00188973 0.0164406 0.114139
-0.00453534 0.0111494 0.121887
-0.0171965 0.00226767 -0.0740773
0.0062361 -0.00604712 0.0313695
-0.000566918 -0.0075589 -0.0340151
0.00264562 0.000377945 0.00170075
-0.00642507 -0.00283459 -0.0321253
-0.00321253 -0.00396842 -0.00642507
-0.00642507 -0.00226767 -0.00434637
0.00888171 -0.0041574 0.00548021
0.0109604 -0.00510226 0.00264562
-0.0113384 0.0379835 -0.054991
-0.0107714 0.0385504 -0.0444086
0.0105825 -0.0304246 0.0517785
0.00888171 -0.0236216 0.0311805
-0.00529123 -0.0238105 0.0379835
0.0113384 0.0188973 0.0391173
-0.000188973 0.000188973 0.00283459
-0.0109604 0.00529123 -0.00302356
-0.00151178 0.00736993 0.000944863
-0.00604712 -0.00170075 -0.00113384
0.0281569 -0.00302356 -0.0990216
0.0168186 0.00812582 -0.00812582
-0.00113384 0.0255113 0.176878
-0.0119053 0.0149288 0.191429
0.00113384 -0.0122832 -0.0313695
Vibration 13
-0.00925966 -0.00529123 -0.0315584
-0.00831479 -0.0128501 -0.0459203
-0.000944863 -0.0173855 -0.0270231
0.00396842 -0.0147399 -0.013984
0.00472431 -0.0062361 -0.00793685
-0.00245664 -0.00151178 -0.00736993
0.0187083 0 0.000944863
-0.00302356 0.0126612 0.0260782
-0.00359048 0.0291018 0.0591484
-0.0158737 -0.00151178 -0.0296687
-0.0062361 -0.0187083 -0.0122832
-0.00434637 -0.020976 0.000944863
-0.0134171 -0.0062361 -0.00359048
-0.0296687 0.0143619 -0.0253223
-0.0302356 0.0151178 -0.0379835
-0.00472431 -0.013606 0.0158737
-0.000566918 -0.0102045 -0.0124722
-0.020598 0.00170075 -0.00888171
-0.0213539 0.0239995 0.00188973
-0.00113384 0.0326923 0.0102045
0.0198421 0.0179524 0.0109604
0.0200311 -0.00359048 -0.00075589
-0.00226767 0.0568808 0.0173855
0.00604712 -0.0117163 0.0291018
0.0453534 -0.0196532 0.0075589
-0.00264562 -0.0020787 0.0075589
-0.00132281 -0.00245664 0.00302356
-0.00132281 -0.00283459 0.00566918
-0.00132281 -0.00283459 0.00642507
-0.000566918 -0.00283459 -0.00264562
-0.00075589 -0.00283459 -0.00113384
-0.00113384 -0.00245664 0.00510226
-0.00151178 -0.00264562 0.00793685
-0.000944863 -0.00283459 0.00812582
-0.00340151 -0.0020787 0.0109604
0.0570697 -0.0179524 0.00888171
-0.0134171 -0.0160627 -0.0657625
0.0198421 0.0113384 0.0020787
0.00113384 -0.0313695 -0.00907068
0.00566918 -0.034771 0.0154958
-0.0408181 0.0291018 -0.0315584
-0.0408181 0.0285349 -0.0521564
-0.0360938 -0.00491329 -0.0149288
-0.0385504 0.034582 0.00321253
0.0364717 0.0234326 0.0194642
0.0364717 -0.0141729 -0.00132281
-0.020409 0.145698 -0.0217318
-0.00680301 -0.0164406 -0.034204
0.0196532 0.0561249 0.110738
0.0241885 -0.027779 0.0542351
-0.00774788 -0.0287238 0.013984
0.0111494 0.0211649 0.0308025
0.000188973 -0.00340151 -0.00831479
-0.000566918 -0.00321253 -0.0041574
-0.00113384 -0.0020787 0.00718096
-0.00170075 -0.00245664 0.0120942
0.0336371 0.00113384 0.00472431
Vibration 14
0.0041574 0.00075589 -0.0330702
0.0041574 0.00661404 -0.0491329
-0.00075589 0.00944863 -0.0400622
-0.00377945 0.00736993 -0.0245664
-0.00396842 0.00170075 -0.0151178
0.000566918 -0.00151178 -0.0160627
-0.0154958 -0.00283459 -0.00170075
-0.000566918 -0.00604712 0.00359048
-0.00170075 -0.0096376 0.0213539
0.00642507 -0.000566918 -0.0243775
0.00529123 -0.0124722 -0.0141729
0.00302356 -0.0124722 -0.000944863
0.00151178 0.000377945 0.00132281
0.00359048 0.0117163 -0.00774788
0.00642507 0.0102045 -0.020409
-0.00226767 0 0.0149288
-0.000377945 0.00869274 -0.0381725
0.0020787 -0.0128501 -0.0075589
0.00396842 -0.0249444 0.0103935
0.00340151 -0.0132281 -0.00491329
0.000188973 0.0130391 -0.0421409
-0.00113384 0.0224877 -0.0565028
0.00661404 -0.0308025 0.020976
-0.0115273 0.0194642 0.0130391
-0.034204 0.0105825 -0.00718096
0.0113384 0.00812582 0.0102045
0.0117163 -0.000566918 0.0173855
0.0120942 -0.00283459 0.0404401
0.00982658 -0.00774788 0.062361
0.0103935 -0.0041574 0.00396842
0.0105825 -0.0062361 0.00699199
0.0115273 -0.00585815 0.0251334
0.0120942 -0.0041574 0.041385
0.00472431 -0.013984 0.0810692
0.00982658 0.0185193 0.00377945
-0.0608492 0.0213539 -0.00472431
0.00831479 0.00888171 -0.0636838
-0.0126612 -0.0143619 0.0107714
0.00585815 -0.0222988 -0.0168186
0.00226767 -0.0215429 0.00699199
0.00321253 0.0215429 -0.00510226
0.00869274 0.0183303 -0.0266451
0.00302356 -0.0217318 0.00453534
0.00642507 -0.0440306 0.0377945
-0.00075589 0.0243775 -0.0572587
-0.00245664 0.0379835 -0.0786126
-0.00113384 -0.0555579 0.0385504
0.0296687 -0.0166296 0.0381725
-0.00529123 -0.0351489 0.00850377
-0.0164406 0.0168186 0.0232436
-0.00585815 0.0255113 -0.00170075
-0.0190862 0.0292908 0.0170075
0.00907068 -0.00396842 -0.00793685
0.0103935 -0.00850377 -0.0041574
0.0117163 -0.00699199 0.0247554
0.0126612 -0.0041574 0.0559359
-0.0451645 0.00793685 -0.0020787
Vibration 15
-0.00680301 0.00907068 0.00510226
-0.00736993 0.0115273 0.00548021
-0.0102045 0.0130391 -0.0115273
-0.0122832 0.0111494 -0.0304246
-0.013606 0.00907068 -0.0315584
-0.0109604 0.00736993 -0.0103935
-0.00491329 0.0113384 -0.047999
-0.0117163 -0.00170075 -0.000377945
-0.0130391 -0.0130391 0.0100155
0.00151178 0.00396842 0.0126612
-0.000944863 0.0126612 0.0041574
0.00812582 0.00793685 0.00302356
0.0188973 -0.00472431 0.00982658
0.0266451 -0.0164406 0.0217318
0.0177634 -0.0111494 0.0230547
0.0239995 -0.00661404 0.00491329
-0.0103935 0.0120942 -0.0124722
-0.00736993 0.00472431 -0.00472431
-0.00642507 -0.0041574 0.00113384
-0.00982658 -0.00434637 -0.00188973
-0.013984 0.00661404 -0.0145509
-0.0145509 0.0141729 -0.0188973
-0.00812582 -0.0179524 0.00982658
-0.020976 0.0153068 -0.0366607
-0.0166296 -0.0124722 0.0653845
-0.0062361 0.00113384 -0.00151178
-0.0020787 -0.00604712 -0.0102045
0.00113384 -0.00888171 0.00718096
0.00170075 -0.00831479 0.00680301
-0.00245664 -0.0109604 -0.0366607
-0.00132281 -0.0153068 -0.0330702
0 -0.0147399 0.000188973
0.00151178 -0.0122832 0.0200311
0.00113384 -0.00888171 0.00812582