[Molden Format]
[FREQ]
-750.0
11.4
21.5
23.1
23.9
29.4
34.3
37.0
54.6
59.3
61.9
73.5
77.0
89.0
96.5
106.3
107.9
129.9
136.1
164.8
176.9
185.9
193.8
201.2
214.7
224.0
237.4
267.9
281.1
293.0
305.2
310.7
314.7
322.7
336.6
348.5
352.5
357.5
382.0
386.5
427.8
432.3
456.4
479.8
491.2
515.1
518.3
539.1
542.6
562.7
584.1
598.1
609.0
613.1
616.9
625.3
633.4
644.0
650.9
694.6
700.2
712.2
720.7
723.2
741.5
762.9
783.6
820.5
839.6
847.3
866.5
879.3
882.3
884.5
897.4
901.4
950.2
967.1
976.3
986.0
1007.2
1008.9
1010.5
1016.3
1018.2
1019.6
1033.1
1041.8
1070.4
1077.0
1080.6
1089.4
1103.6
1126.1
1177.8
1184.2
1185.0
1199.0
1200.1
1225.3
1225.8
1261.1
1267.0
1270.2
1272.4
1276.2
1282.5
1286.2
1296.4
1305.3
1310.1
1331.1
1335.6
1341.2
1349.7
1354.0
1356.3
1365.8
1382.4
1392.5
1394.7
1426.6
1471.1
1481.4
1501.1
1521.3
1529.9
1531.6
1537.5
1557.7
1597.1
1605.2
1646.8
1660.4
1679.7
1695.7
1697.7
1707.0
1709.2
1718.4
1765.4
1812.9
1837.3
1846.9
2454.5
2651.1
2653.9
2664.4
2671.9
2727.4
2735.6
2741.5
2743.8
2744.7
2745.7
2746.4
2747.5
2755.8
2759.8
2763.3
2764.7
2764.8
2768.8
2778.7
3117.5
       
[FR-COORD]
C -1.29427 -1.78881 -1.99895
C 1.34227 -1.78881 -1.99895
C 2.64599 0.520053 -1.99895
N 1.41465 2.75654 -2.02522
C -1.13573 2.77336 -1.93338
C -2.59365 0.531202 -2.005
N -2.26975 5.18333 -1.72608
C -5.25835 0.618318 -2.19832
N -7.43456 0.669341 -2.41715
C -2.65866 -4.19274 -1.93659
C -2.12934 -6.05752 -3.74374
C -3.39962 -8.34371 -3.69139
C -5.21149 -8.75982 -1.79184
C -5.75119 -6.93114 0.0311805
C -4.46448 -4.64041 -0.0642507
O -6.30016 -11.0734 -1.95076
C 5.41142 0.670475 -1.78239
C 6.72629 -1.1465 -0.386638
C 9.3258 -0.934847 -0.0667073
C 10.639 1.08527 -1.15047
C 9.32334 2.89374 -2.55737
C 6.72308 2.6921 -2.86974
C 13.4252 1.31563 -0.829968
C -8.27511 -11.6305 -0.215996
C -3.36655 5.98911 0.568052
C -3.77889 4.02625 2.65941
C -1.50554 2.84083 3.7324
C 0.876833 3.88244 3.36976
C 1.93489 7.12918 2.11252
C -1.72853 0.59413 5.08204
C 0.43785 -0.68049 5.96549
C 2.82438 0.283837 5.50969
C 2.99824 2.57475 4.17743
O 4.05006 7.16187 2.87068
O -5.89368 3.51961 3.31741
O -3.98127 8.16494 0.788205
H 2.37444 -3.56667 -1.98648
H 4.86888 4.39191 4.3596
H -0.725088 -5.69167 -5.21016
H -3.03433 -9.80862 -5.08525
H -7.15337 -7.25315 1.49175
H -4.87927 -3.18419 1.33793
H 5.71944 -2.73065 0.462416
H 10.341 -2.35687 1.01705
H 10.3359 4.47109 -3.40699
H 5.68543 4.12319 -3.94291
H 13.9961 3.25902 -0.358481
H 14.4188 0.803134 -2.58666
H 14.1737 0.0861715 0.664806
H -8.84864 -13.5371 -0.807858
H -9.84831 -10.3035 -0.432936
H -7.56457 -11.6598 1.72513
H -3.60049 -0.205602 5.45677
H 0.210893 -2.44417 6.99766
H 4.50889 -0.716206 6.13707
H 5.05804 3.04057 3.11427
H -1.53087 6.58078 -2.84876

[FR-NORM-COORD]
Vibration 1
0.000188973 -0.000188973 0.000188973
-0.000188973 0.000566918 -0.000566918
0.000377945 0.00075589 0.000566918
-0.000377945 0.00132281 0
0 -0.00170075 -0.00075589
-0.000188973 0.000188973 -0.00075589
0.00075589 0.000944863 0.00151178
-0.000188973 0 0
-0.000188973 0.000188973 0
-0.000188973 -0.000188973 -0.000188973
0 0 0
0 0 0
0 0.000188973 0
0 0 0
0 0 0.000188973
0 0 0
0.000377945 -0.000377945 -0.00132281
0 -0.000188973 -0.00075589
0.000188973 0 -0.000566918
-0.000188973 0 0
0 0.000188973 0
0.000188973 0 -0.000377945
0.000188973 0 -0.000188973
0 0 0
-0.00283459 -0.00132281 -0.00302356
0 0.00170075 0.000944863
0.0158737 0.0255113 -0.00264562
0.00944863 0.0103935 0.000566918
-0.0334482 -0.0733214 0.0226767
0.0109604 -0.00245664 0.000188973
-0.0130391 0.0115273 -0.00302356
0.0132281 0.0283459 -0.013984
-0.0493218 -0.020409 -0.020976
0.0190862 -0.0470542 0.0334482
0.00113384 -0.000188973 -0.000188973
0.000944863 0.00075589 -0.000188973
0.00075589 0.00075589 0.00188973
0.101856 0.828645 -0.616618
0.000377945 -0.000377945 0.000188973
0 0 0.000377945
0.000377945 -0.000188973 0.000188973
0.00170075 0 0.00170075
-0.00132281 0.00302356 0.00434637
-0.00075589 0.000944863 0.00151178
0.000188973 -0.00113384 -0.00075589
0.00132281 -0.00170075 -0.00170075
0 -0.000377945 -0.000188973
-0.000377945 -0.000566918 -0.000188973
-0.00075589 -0.000188973 0.000188973
0 0 0.000188973
0.000188973 0 0
0.000188973 0.000188973 0
0.00453534 0.0124722 -0.0173855
0.0120942 0.0113384 0.000944863
0.00434637 0.0179524 -0.0160627
0.128312 0.0880612 0.385315
-0.0170075 -0.00377945 -0.013795
Vibration 2
-0.0109604 -0.0103935 0.000566918
-0.0107714 -0.0100155 0.00340151
-0.0109604 -0.0100155 0.0062361
-0.0113384 -0.0100155 0.00434637
-0.0111494 -0.0103935 0.0020787
-0.0109604 -0.0103935 0.0020787
-0.0130391 -0.0105825 0.000944863
-0.0111494 -0.0096376 0.0041574
-0.0113384 -0.00869274 0.00661404
-0.0107714 -0.0105825 -0.0062361
-0.00831479 -0.00566918 -0.0105825
-0.00907068 -0.00548021 -0.0192752
-0.0122832 -0.0102045 -0.0234326
-0.0145509 -0.0153068 -0.0190862
-0.013606 -0.0154958 -0.0102045
-0.0130391 -0.00925966 -0.0321253
-0.0115273 -0.00888171 0.0117163
-0.013984 -0.00774788 0.0156847
-0.0149288 -0.00566918 0.0228657
-0.013606 -0.00472431 0.0262672
-0.0111494 -0.00604712 0.0222988
-0.0100155 -0.00831479 0.0145509
-0.0147399 -0.00226767 0.034393
-0.0170075 -0.0132281 -0.0377945
-0.000188973 -0.00699199 0.00566918
0.0188973 -0.0041574 0.0119053
0.0306136 0.0141729 0.00736993
0.0228657 0.0270231 -0.00736993
-0.00170075 0.0245664 -0.0296687
0.0500777 0.0183303 0.0173855
0.0614161 0.0355268 0.0145509
0.0534792 0.048377 0.00075589
0.034204 0.0432747 -0.0103935
0.00188973 0.041385 -0.0398732
0.0245664 -0.0175745 0.0194642
-0.00453534 -0.00812582 0.00453534
-0.0105825 -0.00982658 0.00359048
0.0243775 0.054991 -0.0281569
-0.00585815 -0.0020787 -0.00736993
-0.00718096 -0.00170075 -0.0228657
-0.0168186 -0.0192752 -0.0221098
-0.0154958 -0.0194642 -0.00661404
-0.0153068 -0.00812582 0.013606
-0.0168186 -0.00472431 0.0257003
-0.0100155 -0.00529123 0.0245664
-0.00812582 -0.0096376 0.0109604
-0.0170075 -0.00075589 0.0311805
-0.00925966 -0.0062361 0.0387394
-0.0187083 0.00170075 0.0396842
-0.0173855 -0.0109604 -0.0447865
-0.0154958 -0.0113384 -0.0364717
-0.020598 -0.0198421 -0.0364717
0.0565028 0.00793685 0.027401
0.0763449 0.0387394 0.0230547
0.062361 0.0616051 -0.00132281
0.0264562 0.0493218 -0.0222988
-0.0217318 -0.0130391 -0.00736993
Vibration 3
-0.00604712 0.00188973 -0.0160627
-0.00604712 0.00075589 -0.0202201
-0.00453534 0 -0.0147399
-0.00491329 0.000188973 -0.0117163
-0.00453534 0.00132281 -0.0119053
-0.00566918 0.0020787 -0.0130391
-0.00359048 0.00170075 -0.00680301
-0.00585815 0.00321253 -0.00888171
-0.0062361 0.00434637 -0.00529123
-0.00680301 0.00245664 -0.00850377
-0.0156847 -0.00113384 -0.00718096
-0.0145509 -0.00151178 0.00453534
-0.00434637 0.00188973 0.0151178
0.00359048 0.00604712 0.0132281
0.0020787 0.00642507 0.00113384
-0.00321253 0.000566918 0.0270231
-0.00548021 0.00226767 -0.00491329
-0.00188973 -0.0238105 -0.0421409
-0.00491329 -0.0171965 -0.0232436
-0.0102045 0.0166296 0.0332592
-0.0124722 0.0417629 0.0676522
-0.00944863 0.0336371 0.0476211
-0.013795 0.0255113 0.0566918
0.00925966 0.00188973 0.041574
0.00661404 0.000377945 -0.00151178
0.0100155 -0.00226767 -0.00321253
0.0107714 -0.00869274 -0.0120942
0.0113384 -0.0100155 -0.0120942
0.0113384 -0.00850377 -0.00283459
0.0107714 -0.013984 -0.020598
0.0107714 -0.0202201 -0.0298577
0.0111494 -0.020976 -0.0302356
0.0113384 -0.0156847 -0.020976
0.013606 -0.0128501 -0.00793685
0.0109604 0.000566918 0.00226767
0.0102045 0.000944863 0.00359048
-0.00774788 -0.000188973 -0.0253223
0.013795 -0.0185193 -0.0179524
-0.0234326 -0.00377945 -0.0153068
-0.0213539 -0.00453534 0.00585815
0.0107714 0.00907068 0.020787
0.00831479 0.0096376 -0.000377945
0.00321253 -0.0496998 -0.0840928
-0.00264562 -0.0377945 -0.0523454
-0.0170075 0.0676522 0.11036
-0.0107714 0.0525344 0.0736993
-0.0234326 0.0243775 0.0719986
0.00151178 0.0387394 0.0612271
-0.0213539 0.0192752 0.055369
0.00869274 -0.00075589 0.0506447
0.00548021 -0.00132281 0.047999
0.0217318 0.00869274 0.0370386
0.0105825 -0.0132281 -0.0202201
0.0107714 -0.0241885 -0.0368497
0.0111494 -0.0255113 -0.0376055
0.0100155 -0.0141729 -0.0232436
-0.0075589 0.00188973 -0.00888171
Vibration 4
-0.00302356 0.00472431 -0.00869274
-0.00302356 0.00566918 -0.00774788
-0.00510226 0.00661404 -0.0109604
-0.00472431 0.00642507 -0.0134171
-0.00472431 0.00510226 -0.0100155
-0.00359048 0.00434637 -0.0111494
-0.00585815 0.00377945 0.000377945
-0.00359048 0.00453534 -0.0130391
-0.00340151 0.00529123 -0.0151178
-0.00321253 0.00491329 -0.00302356
-0.00151178 -0.00151178 0.0041574
-0.00264562 -0.00075589 0.0102045
-0.00548021 0.00661404 0.00907068
-0.00699199 0.0130391 0.00245664
-0.00566918 0.0119053 -0.00377945
-0.00680301 0.00680301 0.0154958
-0.00566918 0.00888171 -0.00434637
-0.0177634 0.0464873 0.0557469
-0.0200311 0.0544241 0.0697309
-0.0115273 0.0236216 0.0228657
0.000377945 -0.0162516 -0.0396842
0.00245664 -0.0228657 -0.0527234
-0.0143619 0.0349599 0.0406291
-0.0096376 0.013984 0.0145509
0.00529123 -0.00548021 0.00907068
0.0103935 -0.0154958 0.000944863
0.0120942 -0.0194642 -0.00699199
0.0124722 -0.020976 -0.00982658
0.0145509 -0.0188973 -0.00661404
0.0130391 -0.0221098 -0.0111494
0.013606 -0.0257003 -0.0177634
0.0134171 -0.0266451 -0.0202201
0.0126612 -0.0245664 -0.0164406
0.0164406 -0.0239995 -0.0115273
0.0115273 -0.020409 0.00113384
0.00812582 -0.00604712 0.0222988
-0.00075589 0.00699199 -0.00340151
0.0156847 -0.0266451 -0.0187083
0.00075589 -0.00718096 0.00472431
-0.00132281 -0.00566918 0.0158737
-0.00907068 0.0185193 0.00170075
-0.00661404 0.0166296 -0.00888171
-0.0262672 0.0704868 0.0905179
-0.0287238 0.0842818 0.116974
0.00812582 -0.041385 -0.0771008
0.0105825 -0.0525344 -0.0993996
-0.0257003 0.0406291 0.0321253
0.000377945 0.02759 0.0514005
-0.0200311 0.0478101 0.0540462
-0.00982658 0.0122832 0.020598
-0.00850377 0.0141729 0.0075589
-0.0124722 0.020598 0.0156847
0.0130391 -0.0213539 -0.00925966
0.013984 -0.027401 -0.020598
0.013795 -0.0289128 -0.0247554
0.0115273 -0.0253223 -0.0202201
-0.00982658 0.00812582 0.00302356
Vibration 5
-0.00529123 -0.00245664 0.00396842
-0.00529123 -0.00283459 -0.00434637
-0.00585815 -0.00283459 -0.00396842
-0.00604712 -0.00321253 -0.00472431
-0.00604712 -0.00264562 0.00283459
-0.00585815 -0.00283459 0.0149288
-0.00283459 0 -0.00680301
-0.00774788 -0.00585815 0.0394953
-0.0102045 -0.00982658 0.0631168
-0.00264562 -0.00434637 -0.00283459
-0.020598 0.0154958 -0.0285349
-0.0149288 0.0120942 -0.0364717
0.0100155 -0.0113384 -0.0177634
0.0272121 -0.0306136 0.00661404
0.0202201 -0.0262672 0.013795
0.0147399 -0.0130391 -0.027401
-0.00604712 -0.00226767 -0.00132281
-0.0102045 0.00566918 0.0128501
-0.0113384 0.00812582 0.0200311
-0.00850377 0.00264562 0.0128501
-0.00434637 -0.00642507 -0.00264562
-0.00340151 -0.00869274 -0.0096376
-0.0100155 0.00661404 0.0221098
0.0417629 -0.0383614 -0.00491329
0.00982658 0.020409 -0.00812582
0.0020787 0.0383614 0.00680301
-0.00491329 0.020409 0.00170075
0.00340151 -0.00188973 -0.00793685
0.0294797 -0.013984 -0.0196532
-0.0211649 0.0260782 0.00869274
-0.0302356 0.00907068 0.00566918
-0.0228657 -0.013606 -0.00396842
-0.0062361 -0.0188973 -0.0105825
0.0321253 -0.0319364 -0.0266451
0.000377945 0.0667073 0.0232436
0.0221098 0.0255113 -0.0217318
-0.00510226 -0.00283459 -0.0111494
0.0111494 -0.0351489 -0.0215429
-0.0389284 0.0334482 -0.041574
-0.0287238 0.0272121 -0.0559359
0.0457314 -0.0487549 0.0202201
0.0334482 -0.0406291 0.0323143
-0.0126612 0.00982658 0.0179524
-0.0141729 0.0145509 0.0313695
-0.0020787 -0.0111494 -0.00869274
-0.000566918 -0.0151178 -0.020976
-0.0151178 0.0075589 0.0247554
-0.00302356 0.00907068 0.0255113
-0.0130391 0.0075589 0.0243775
0.0400622 -0.034204 -0.0170075
0.0338261 -0.0417629 0.0321253
0.0697309 -0.0565028 -0.0154958
-0.027401 0.0442196 0.0166296
-0.0428968 0.013984 0.0113384
-0.0300466 -0.0270231 -0.00604712
-0.00453534 -0.0402512 -0.0179524
-0.00359048 -0.00888171 -0.0190862
Vibration 6
-0.0156847 0.0164406 -0.0166296
-0.0158737 0.0115273 -0.0128501
-0.0109604 0.00869274 -0.00226767
-0.00548021 0.0115273 0.00321253
-0.00585815 0.0158737 -0.00170075
-0.0107714 0.0188973 -0.0120942
-0.00264562 0.0166296 0.00661404
-0.0102045 0.0251334 -0.0166296
-0.0096376 0.0306136 -0.020787
-0.0145509 0.0156847 -0.0194642
-0.00850377 0.0158737 -0.0179524
0.00944863 0.0062361 -0.0075589
0.0217318 -0.00377945 0.0020787
0.00888171 -0.000188973 -0.00529123
-0.00982658 0.00982658 -0.0164406
0.0470542 -0.0166296 0.0179524
-0.0109604 -0.00377945 0.00359048
-0.0258892 -0.00680301 0.0141729
-0.0243775 -0.0257003 0.0141729
-0.00831479 -0.041574 0.00377945
0.00585815 -0.0370386 -0.00359048
0.0041574 -0.0177634 -0.00321253
-0.0062361 -0.0640617 0.00075589
0.0752111 -0.0387394 0.0428968
-0.00340151 0.00831479 0.00925966
-0.000944863 0 0.00188973
0.00170075 0.00151178 -0.00188973
-0.00132281 0.0102045 0.00396842
-0.0107714 0.0181414 0.0181414
0.00774788 -0.00548021 -0.0126612
0.0111494 -0.00321253 -0.0175745
0.00850377 0.0062361 -0.0115273
0.00226767 0.0130391 -0.00075589
-0.0115273 0.0219208 0.0198421
0 -0.00774788 -0.00132281
-0.0041574 0.00718096 0.0173855
-0.0190862 0.00944863 -0.0170075
-0.00340151 0.0177634 0.00812582
-0.0162516 0.0228657 -0.0238105
0.0158737 0.00529123 -0.00472431
0.013795 -0.00566918 -0.00188973
-0.0192752 0.0120942 -0.0215429
-0.0387394 0.00548021 0.0217318
-0.0359048 -0.0281569 0.0217318
0.0185193 -0.0487549 -0.0102045
0.0151178 -0.0145509 -0.00925966
0.00982658 -0.0684081 -0.000377945
-0.0120942 -0.0725655 -0.000188973
-0.0143619 -0.0697309 0.000188973
0.0999665 -0.0515895 0.0602823
0.0514005 -0.0655735 0.0517785
0.0961871 -0.0156847 0.0355268
0.0100155 -0.0130391 -0.0173855
0.0158737 -0.00888171 -0.0260782
0.0111494 0.00850377 -0.0153068
0.00132281 0.0238105 0.00226767
-0.00113384 0.0200311 0.0120942
Vibration 7
-0.013984 0.00396842 0.00491329
-0.0132281 0.00396842 0.00944863
-0.0115273 0.00264562 0.00491329
-0.0109604 0.00321253 0.00188973
-0.0103935 0.00396842 0.00132281
-0.0120942 0.00491329 0.000377945
-0.00850377 0.00566918 0.00113384
-0.0115273 0.0115273 -0.00642507
-0.0107714 0.0198421 -0.0120942
-0.00850377 0.00113384 0.00264562
0.0462983 -0.020976 0.0406291
0.0616051 -0.0291018 0.041574
0.0177634 -0.0153068 0.00302356
-0.0406291 0.0075589 -0.0372276
-0.0523454 0.0143619 -0.0362827
0.0406291 -0.0264562 0.0103935
-0.0113384 0.00226767 0.00170075
-0.00736993 -0.00340151 -0.00944863
-0.00680301 -0.00321253 -0.013606
-0.0102045 0.00283459 -0.0062361
-0.0141729 0.00869274 0.00491329
-0.0143619 0.00812582 0.00869274
-0.00982658 0.00302356 -0.0105825
-0.00226767 -0.0143619 -0.034771
0.00982658 0.0128501 0.00736993
0.00774788 0.0156847 0.00925966
0.00453534 0.00718096 0.00661404
0.00944863 -0.00699199 -0.00151178
0.0260782 -0.0170075 -0.0153068
-0.00491329 0.0120942 0.0134171
-0.0100155 0.00321253 0.0134171
-0.00585815 -0.0109604 0.00585815
0.00377945 -0.0162516 -0.00188973
0.0285349 -0.0279679 -0.0217318
0.00680301 0.0241885 0.0132281
0.0219208 0.0160627 0.0096376
-0.013606 0.00377945 0.0158737
0.0145509 -0.0260782 -0.0122832
0.0786126 -0.0319364 0.0685971
0.106392 -0.0461093 0.0714316
-0.075589 0.0190862 -0.0682191
-0.0958091 0.0294797 -0.0644397
-0.00434637 -0.00812582 -0.0147399
-0.00377945 -0.00793685 -0.0224877
-0.0168186 0.013606 0.0107714
-0.0171965 0.0126612 0.0170075
-0.00944863 0.0020787 -0.00736993
-0.0128501 0.00736993 -0.013606
-0.00680301 -0.000188973 -0.0147399
0.0306136 -0.0294797 -0.0183303
-0.0075589 -0.0315584 -0.100722
-0.0559359 0.0245664 -0.0145509
-0.00831479 0.0228657 0.0188973
-0.0177634 0.0075589 0.0192752
-0.0100155 -0.0179524 0.00585815
0.0041574 -0.0313695 -0.00793685
-0.0119053 0.00226767 -0.00548021
Vibration 8
-0.00151178 0.00907068 -0.0168186
-0.00170075 0.00718096 -0.0126612
-0.000377945 0.00661404 -0.0062361
0.000377945 0.00699199 -0.000566918
0.000377945 0.00812582 -0.00510226
-0.00075589 0.00944863 -0.0168186
0.000566918 0.00736993 0.00661404
0.000188973 0.00982658 -0.0298577
0.00170075 0.0100155 -0.0440306
-0.00377945 0.0103935 -0.0166296
-0.0198421 0.0153068 -0.0258892
-0.0192752 0.0151178 -0.0196532
-0.00113384 0.0102045 -0.00340151
0.0126612 0.00718096 0.00396842
0.0107714 0.00793685 -0.00321253
0.000377945 0.00907068 0.00359048
-0.000377945 0.00529123 -0.00491329
-0.000566918 -0.000188973 -0.0120942
-0.000566918 -0.00132281 -0.0109604
-0.000566918 0.00302356 -0.00245664
-0.000377945 0.00850377 0.00453534
-0.000188973 0.0096376 0.00321253
-0.000566918 0.0020787 -0.000944863
0.0281569 -0.00188973 0.0317474
0.00377945 -0.00925966 0.013795
-0.00170075 -0.02759 -0.00491329
-0.0041574 -0.00850377 0.0202201
-0.00132281 -0.0219208 0.000188973
0.013984 -0.0453534 -0.062361
-0.0102045 0.0200311 0.0672742
-0.0143619 0.0349599 0.0982658
-0.0117163 0.0190862 0.0788016
-0.00510226 -0.0111494 0.0279679
0.0141729 -0.0417629 -0.0638727
-0.00529123 -0.0566918 -0.0374166
0.00888171 -0.00982658 0.0349599
-0.00302356 0.00642507 -0.0143619
0.000566918 -0.0124722 -0.00925966
-0.0323143 0.0187083 -0.0368497
-0.0317474 0.0181414 -0.0260782
0.0249444 0.0041574 0.0149288
0.0213539 0.0062361 0.00151178
-0.000377945 -0.00377945 -0.0185193
-0.000566918 -0.00566918 -0.0166296
-0.000377945 0.0122832 0.0113384
0 0.013984 0.00888171
-0.000566918 0.00075589 0.00453534
-0.000188973 0.00680301 -0.0020787
-0.00113384 -0.0020787 -0.00396842
0.027401 -0.00340151 0.0372276
0.0194642 -0.00812582 0.0566918
0.0566918 -0.00188973 0.0213539
-0.0126612 0.0313695 0.0805023
-0.0194642 0.0587705 0.13795
-0.0145509 0.0289128 0.102612
-0.00359048 -0.0394953 0.0190862
0.00548021 0.0149288 0.0190862
Vibration 9
-0.0107714 -0.0132281 -0.00321253
-0.0103935 -0.0181414 0.00888171
-0.00680301 -0.020409 0.00529123
-0.00434637 -0.0188973 0.00170075
-0.00359048 -0.013984 -0.00793685
-0.00718096 -0.0111494 -0.013606
0.00359048 -0.00888171 -0.0143619
-0.00566918 -0.00585815 -0.0325033
-0.00377945 -0.000377945 -0.0502667
-0.0162516 -0.0107714 -0.00718096
-0.0219208 -0.00831479 -0.0113384
-0.0226767 -0.00793685 -0.0115273
-0.0168186 -0.0111494 -0.00642507
-0.0149288 -0.0115273 -0.00566918
-0.0153068 -0.0111494 -0.00642507
-0.013606 -0.0128501 -0.00434637
-0.00661404 -0.0134171 -0.00302356
0.00718096 -0.0020787 -0.00226767
0.00661404 0.0171965 -0.00642507
-0.00907068 0.0241885 -0.0119053
-0.0226767 0.0103935 -0.0171965
-0.0213539 -0.00850377 -0.0126612
-0.0111494 0.0504557 -0.0119053
0.0145509 -0.0294797 0.0222988
0.0296687 0.00736993 -0.00812582
0.0198421 0.0109604 -0.00736993
0.013606 0.00812582 0.00264562
0.0160627 0.0096376 0.0224877
0.0238105 0.0158737 0.0453534
0.00359048 0.00585815 -0.00302356
-0.00302356 0.00529123 0.0128501
0 0.00774788 0.0351489
0.0103935 0.0100155 0.0394953
0.0147399 0.0166296 0.0706758
0.0164406 0.013984 -0.0158737
0.0529123 0.013795 -0.00736993
-0.0134171 -0.0198421 0.0185193
0.00396842 0.0096376 0.0670853
-0.0247554 -0.00718096 -0.013606
-0.0264562 -0.0062361 -0.0145509
-0.0134171 -0.0119053 -0.0041574
-0.0145509 -0.0113384 -0.00604712
0.0190862 -0.00699199 0.00226767
0.0179524 0.0268341 -0.00434637
-0.034393 0.0145509 -0.0234326
-0.0323143 -0.0187083 -0.0154958
-0.0349599 0.0487549 0.0249444
-0.00699199 0.0971319 -0.0230547
0.00604712 0.0309915 -0.0366607
0.0219208 -0.0338261 0.0289128
0.00113384 -0.0419519 0.0440306
0.0406291 -0.0247554 0.0128501
0.000944863 0.00472431 -0.0188973
-0.0109604 0.00340151 0.00812582
-0.00472431 0.00831479 0.0487549
0.0177634 0.0147399 0.0602823
0.00151178 -0.0181414 -0.0272121
Vibration 10
0.000944863 0.00132281 -0.00245664
0.000944863 -0.000188973 -0.00944863
0.00264562 -0.00132281 -0.00888171
0.00472431 -0.000188973 -0.00510226
0.00472431 0.00151178 0.00075589
0.00283459 0.00245664 0.0041574
0.00642507 0.00170075 0.00283459
0.0020787 0.00510226 0.0147399
0.00113384 0.00736993 0.0245664
0.000188973 0.00188973 -0.00151178
0.0041574 -0.00113384 0.00245664
0.00491329 -0.00151178 0.00396842
0.00132281 0.00113384 0.00113384
-0.00302356 0.0041574 -0.00321253
-0.00321253 0.00434637 -0.00434637
0.00302356 0.000377945 0.00340151
0.00283459 -0.00510226 -0.00888171
-0.00170075 -0.00377945 -0.00359048
-0.00151178 -0.0062361 0.00151178
0.0020787 -0.0100155 0.000944863
0.0062361 -0.0113384 -0.00642507
0.00736993 -0.00888171 -0.0115273
-0.00113384 0.00869274 0.0156847
-0.00151178 0.00321253 -0.000566918
-0.00321253 -0.00226767 -0.000377945
-0.00377945 -0.00340151 -0.00151178
-0.00302356 -0.00075589 -0.000188973
-0.00396842 0.00075589 -0.0020787
-0.00718096 0.000944863 -0.00396842
-0.00075589 0.000377945 0.0020787
0.000566918 0.00302356 0.00245664
-0.000377945 0.0041574 0.000188973
-0.00264562 0.00302356 -0.0020787
-0.00699199 0.00340151 -0.00491329
-0.00377945 -0.00604712 -0.00340151
-0.00793685 -0.00359048 -0.000944863
0 -0.000944863 -0.0141729
-0.00396842 0.00472431 -0.00453534
0.00661404 -0.00302356 0.00434637
0.00831479 -0.00377945 0.00736993
-0.00604712 0.00642507 -0.00566918
-0.00604712 0.00604712 -0.00699199
-0.00491329 -0.00132281 -0.00245664
-0.00680301 -0.00548021 0.00736993
0.0111494 -0.0143619 -0.0062361
0.0105825 -0.0103935 -0.0166296
-0.0801244 -0.0801244 0.483014
-0.000188973 0.480557 -0.120376
0.0702978 -0.324277 -0.294608
0.0020787 0.00113384 0.00302356
-0.00188973 0.00132281 -0.00888171
-0.00699199 0.00925966 0.00151178
0 -0.00075589 0.00340151
0.00226767 0.00377945 0.00434637
0.00075589 0.00585815 0.000188973
-0.00359048 0.00377945 -0.00340151
0.0102045 0.00377945 0.0075589
Vibration 11
-0.00170075 -0.000188973 -0.0213539
-0.00132281 -0.00510226 -0.0498888
0.00359048 -0.00793685 -0.0468652
0.00888171 -0.00491329 -0.0315584
0.0096376 0 -0.00925966
0.00359048 0.00302356 0.00529123
0.0190862 0.00302356 -0.00170075
0.000566918 0.0109604 0.0517785
-0.00377945 0.0177634 0.0952422
-0.00264562 0.000566918 -0.0154958
0.00907068 -0.0113384 -0.000377945
0.0134171 -0.013606 0.00888171
0.00340151 -0.00359048 0.00151178
-0.0105825 0.00869274 -0.0151178
-0.0122832 0.00925966 -0.0224877
0.00982658 -0.0075589 0.013606
0.00396842 -0.013606 -0.0464873
-0.00491329 -0.0132281 -0.0376055
-0.00907068 -0.00548021 -0.00982658
-0.00434637 0.00132281 0.00850377
0.00661404 -0.00699199 -0.0120942
0.0102045 -0.0141729 -0.0394953
-0.0105825 0.0156847 0.0527234
-0.00774788 0.00680301 -0.00170075
0.00850377 -0.00377945 -0.00434637
-0.000566918 -0.0111494 -0.0134171
-0.00302356 -0.00302356 0
-0.0041574 0.00170075 0.00699199
-0.00869274 0.00793685 0.0147399
-0.00359048 0.00170075 0.00793685
-0.00453534 0.0119053 0.0245664
-0.00491329 0.0166296 0.0326923
-0.0041574 0.0115273 0.0234326
-0.0158737 0.0173855 0.0334482
-0.00321253 -0.0228657 -0.0311805
0.0119053 -0.00340151 0.00151178
-0.00377945 -0.00661404 -0.0699199
-0.0132281 0.0175745 0.034204
0.0153068 -0.0190862 0.00377945
0.0243775 -0.0228657 0.0215429
-0.0190862 0.0171965 -0.0213539
-0.0211649 0.0164406 -0.0323143
-0.00944863 -0.0164406 -0.0489439
-0.0160627 -0.00302356 -0.000377945
0.0115273 -0.00585815 -0.00434637
0.0175745 -0.0187083 -0.0521564
-0.0179524 0.034204 -0.0160627
0.0224877 -0.0570697 0.0925966
-0.0402512 0.0763449 0.117541
0.000944863 0.000377945 0.0109604
-0.00699199 0.00283459 -0.0309915
-0.0279679 0.0264562 0.0062361
-0.00340151 -0.00188973 0.00188973
-0.00472431 0.0158737 0.0313695
-0.00548021 0.0243775 0.0462983
-0.000566918 0.0164406 0.0355268
0.0296687 0.00585815 0.00831479
Vibration 12
0.00566918 -0.00699199 0.00321253
0.00642507 -0.0158737 0.00340151
0.013984 -0.0202201 0.00699199
0.0211649 -0.0154958 0.0192752
0.0213539 -0.00661404 0.0217318
0.0145509 -0.00226767 0.0113384
0.0260782 -0.00604712 0.0226767
0.0158737 0.0149288 0.00188973
0.0173855 0.0355268 -0.0075589
-0.0075589 0.000377945 -0.00812582
0.000566918 -0.00661404 0.00113384
-0.00888171 -0.00151178 -0.00434637
-0.0255113 0.00869274 -0.0177634
-0.0421409 0.0196532 -0.0336371
-0.0326923 0.0143619 -0.0287238
-0.0264562 0.00944863 -0.0173855
0.0153068 -0.020598 -0.00472431
0.0257003 -0.013795 -0.00585815
0.0243775 0.00321253 -0.00340151
0.0128501 0.0122832 -0.00075589
0.0041574 -0.00132281 -0.0100155
0.00585815 -0.0179524 -0.0119053
0.00925966 0.0381725 0.0130391
0.0393063 -0.0270231 0.0455424
-0.0141729 -0.0096376 0.00434637
-0.0119053 0.00377945 0.0181414
-0.00925966 0.00170075 0.0103935
-0.0107714 0.00113384 -0.00113384
-0.0181414 -0.00151178 -0.00850377
-0.00321253 0.00188973 0.0111494
0.00151178 0.000188973 -0.00226767
-0.000377945 -0.00188973 -0.0170075
-0.00680301 -0.000944863 -0.0156847
-0.0124722 -0.00132281 -0.0245664
-0.0096376 0.020409 0.0376055
-0.0394953 -0.0145509 -0.0153068
0.000944863 -0.0188973 -0.000944863
-0.00264562 -0.00170075 -0.0308025
0.0160627 -0.0166296 0.0134171
-0.000944863 -0.00699199 0.00359048
-0.062172 0.0325033 -0.0498888
-0.0440306 0.0211649 -0.0387394
0.034771 -0.0200311 -0.00736993
0.0323143 0.0102045 -0.00170075
-0.00453534 0.00226767 -0.013606
-0.00113384 -0.0266451 -0.0170075
-0.00812582 0.0495108 -0.0119053
0.0239995 0.0200311 0.0266451
0.00907068 0.0659514 0.0359048
0.0631168 -0.0419519 0.0706758
0.0041574 -0.061983 0.0863605
0.0973209 -0.00340151 0.0247554
-0.00132281 0.00264562 0.0215429
0.00661404 -0.000188973 -0.00170075
0.00264562 -0.00434637 -0.0291018
-0.0128501 -0.00245664 -0.0300466
0.0364717 -0.00302356 0.0330702
Vibration 13
0.0109604 -0.00888171 -0.0500777
0.0103935 -0.000377945 -0.0614161
0.00170075 0.00491329 -0.0262672
-0.00453534 0.00132281 0.00944863
-0.00529123 -0.00793685 0.00453534
0.00359048 -0.0120942 -0.0251334
-0.0151178 -0.0134171 0.0154958
0.0041574 -0.020598 -0.0351489
0.00529123 -0.027779 -0.0476211
0.0160627 -0.0115273 -0.041574
0.00453534 -0.0247554 -0.0304246
0.00302356 -0.0241885 -0.00510226
0.0126612 -0.00812582 0.00718096
0.0270231 0.00472431 -0.00113384
0.0289128 0.00151178 -0.0251334
0.0062361 -0.00718096 0.034393
0.00113384 0.00434637 -0.0198421
-0.00944863 0.00264562 -0.0119053
-0.0105825 -0.00321253 -0.000566918
-0.00151178 -0.00774788 0.0020787
0.00925966 -0.00736993 -0.0075589
0.0096376 -0.00075589 -0.0179524
-0.00264562 -0.0130391 0.0173855
-0.0321253 0.041385 0.00680301
-0.0158737 -0.00585815 0.0113384
-0.00340151 0.0211649 0.0387394
-0.00170075 0.0109604 0.0232436
-0.000566918 0.00434637 0.0124722
0.000944863 0.00699199 0.0202201
-0.00321253 0.0158737 0.0308025
-0.00340151 0.0119053 0.0257003
-0.00245664 0.00340151 0.0132281
-0.000377945 0 0.00699199
0.0020787 0.00170075 0.0175745
0.000944863 0.0593374 0.082581
-0.0296687 -0.00699199 -0.00925966
0.0173855 0.00359048 -0.0912738
0.00226767 -0.0062361 0.00359048
-0.00453534 -0.0364717 -0.0417629
-0.00585815 -0.0349599 0.00377945
0.0374166 0.0156847 0.0115273
0.041574 0.0105825 -0.0306136
-0.0173855 0.00642507 -0.013984
-0.0187083 -0.00377945 0.0062361
0.0170075 -0.0117163 -0.0062361
0.0171965 0 -0.0234326
-0.00245664 -0.0153068 0.0262672
0.00604712 -0.00925966 0.0211649
-0.0124722 -0.0187083 0.0175745
-0.0502667 0.0434637 0.0185193
-0.00907068 0.062172 -0.034393
-0.0650066 0.0525344 0.0190862
-0.00396842 0.0230547 0.0419519
-0.00453534 0.0158737 0.0323143
-0.00283459 0 0.00888171
-0.00529123 -0.00585815 -0.00151178
-0.0298577 -0.0122832 0.00604712
Vibration 14
-0.0117163 0.00434637 0.0168186
-0.0111494 -0.00982658 0.0156847
0.00075589 -0.0173855 0.0020787
0.0117163 -0.0107714 0.00774788
0.0120942 0.00302356 0.0143619
0 0.00982658 0.0100155
0.0251334 0.00793685 0.0181414
0.00283459 0.0287238 -0.0154958
0.00642507 0.0504557 -0.0453534
-0.0145509 0.00566918 0.0151178
-0.0241885 0.020598 -0.00359048
-0.00718096 0.0119053 -0.00264562
0.0183303 -0.0117163 0.0166296
0.0253223 -0.0255113 0.0325033
0.00774788 -0.0147399 0.0309915
0.0423299 -0.0236216 0.0213539
0.00264562 -0.0262672 -0.0170075
0.00982658 -0.0249444 -0.0224877
0.00793685 -0.0103935 -0.0147399
-0.00151178 0.00226767 -0.00245664
-0.00529123 -0.0113384 -0.0162516
-0.00302356 -0.0257003 -0.0238105
-0.00793685 0.034771 0.0304246
-0.0249444 -0.00113384 -0.048188
0.00434637 0.00359048 0.0103935
-0.00774788 0.00170075 0.00661404
-0.00831479 0.00132281 0.00718096
-0.00982658 0.00245664 -0.00075589
-0.0185193 0.00302356 -0.00359048
-0.00283459 0.000944863 0.00680301
0.00170075 -0.000188973 -0.00529123
-0.000188973 -0.00075589 -0.0168186
-0.0062361 0.00170075 -0.0132281
-0.0149288 0.00491329 -0.0143619
-0.00944863 0.00283459 0.000944863
0.00566918 0.00396842 0.0100155
-0.020976 -0.0154958 0.020976
-0.00434637 0.00302356 -0.0230547
-0.0444086 0.0398732 -0.0181414
-0.0141729 0.0228657 -0.0160627
0.0461093 -0.0459203 0.0478101
0.0126612 -0.0239995 0.041574
0.0166296 -0.0326923 -0.0287238
0.0132281 -0.00661404 -0.0149288
-0.0107714 -0.00831479 -0.0171965
-0.00680301 -0.0338261 -0.0308025
-0.0349599 0.0449755 0.0213539
0.020598 0.0306136 0.047999
-0.0141729 0.0557469 0.0510226
-0.0264562 0.00566918 -0.068786
-0.00226767 0.0170075 -0.1011
-0.0914627 -0.0102045 -0.0239995
-0.00113384 0.00075589 0.0145509
0.00661404 -0.00151178 -0.00642507
0.00264562 -0.00302356 -0.0281569
-0.0105825 0.00359048 -0.0226767
0.0417629 0.0100155 0.0315584
Vibration 15
0.0100155 -0.0111494 -0.0234326
0.0096376 -0.00793685 -0.0224877
0.00510226 -0.00510226 0.00604712
0 -0.00831479 0.0247554
-0.00132281 -0.0100155 0.013606
0.00491329 -0.0120942 -0.00548021
0.0041574 -0.00510226 0.0168186
0.0041574 -0.020787 0.00132281
0.00302356 -0.0326923 0.0102045
0.0100155 -0.0115273 -0.0255113
0.00680301 -0.0222988 -0.0149288
0.000377945 -0.0190862 -0.0041574
-0.00321253 -0.00472431 -0.00453534
0 0.0062361 -0.0145509
0.00718096 0.000944863 -0.0245664
-0.0126612 -0.00132281 0.00869274
0.00453534 0.00113384 0.0126612
0.00699199 0.00585815 0.0160627
0.00774788 0.00736993 0.0105825
0.00585815 0.00359048 0.000944863
0.00170075 0.00340151 0.00434637
0.00113384 0.00226767 0.0107714
0.00812582 -0.00075589 -0.0160627
-0.00548021 0.0130391 0.0219208
0.0608492 0.0181414 0.0396842
-0.013984 0.00907068 0.0162516
-0.0287238 -0.0190862 0.0134171
-0.0374166 -0.00245664 0.00831479
-0.0950532 -0.0115273 -0.0444086
-0.0100155 -0.0319364 -0.00774788
0.00566918 -0.0175745 -0.0239995
-0.00245664 0.0100155 -0.0151178
-0.0255113 0.0188973 -0.00113384
-0.089384 0.0311805 -0.0644397
-0.0266451 0.0440306 -0.00226767
0.165351 0.0440306 0.0738883
0.0134171 -0.00566918 -0.0394953
-0.0387394 0.0504557 -0.0243775
0.00944863 -0.0340151 -0.0153068
-0.00132281 -0.027401 0.0041574