[Molden Format]
[FREQ]
-1499.8
10.5
12.7
20.1
23.9
25.6
29.8
32.4
37.1
44.2
47.5
49.3
57.4
62.8
68.0
77.4
81.9
92.4
109.1
113.3
119.6
132.9
135.9
159.7
178.1
190.5
199.2
206.2
225.2
251.1
265.2
279.2
288.8
302.7
318.6
326.8
340.7
348.6
350.5
355.9
363.8
391.6
408.1
436.4
463.9
486.0
496.9
520.3
525.1
539.9
559.9
569.5
583.7
606.6
613.5
616.9
630.6
635.9
642.5
654.6
677.1
697.1
717.5
722.7
756.9
783.3
789.4
803.7
819.2
828.7
842.2
861.1
880.7
882.7
895.7
897.4
901.2
966.5
973.4
975.2
994.0
1008.6
1009.7
1013.2
1017.8
1018.4
1023.5
1032.3
1067.2
1070.8
1081.3
1086.7
1126.2
1131.1
1141.5
1153.0
1178.7
1183.0
1184.8
1201.4
1229.5
1250.0
1258.3
1264.6
1269.4
1279.7
1283.2
1286.9
1294.0
1299.4
1303.2
1315.3
1331.4
1339.3
1344.5
1348.8
1355.5
1364.9
1371.5
1381.8
1393.4
1426.6
1433.6
1457.2
1498.6
1512.2
1523.5
1529.2
1532.7
1556.7
1597.0
1603.5
1645.5
1676.5
1697.7
1699.6
1708.2
1709.5
1768.8
1803.6
1897.5
2019.1
2067.0
2276.0
2453.3
2651.6
2654.2
2668.1
2673.4
2709.9
2725.6
2744.9
2745.4
2747.2
2750.3
2750.7
2755.6
2757.0
2764.1
2766.1
2766.9
2767.5
2770.2
2776.0
2779.8
       
[FR-COORD]
C -2.14068 -3.76415 -0.639861
C 0.495864 -3.76415 -0.639861
C 1.80431 -1.45396 -0.639861
N 0.564083 0.773654 -0.64383
C -1.99083 0.790094 -0.61435
C -3.44988 -1.44999 -0.623043
N -3.18192 3.16208 -0.690884
C -6.12007 -1.33056 -0.635326
N -8.30572 -1.22379 -0.641562
C -3.50336 -6.17392 -0.650255
C -3.07269 -7.90529 -2.60952
C -4.3458 -10.1907 -2.65412
C -6.05884 -10.7403 -0.698254
C -6.49933 -9.04536 1.2733
C -5.21054 -6.75218 1.27557
O -7.16414 -13.038 -0.966595
C 4.57654 -1.29956 -0.575988
C 5.7442 0.603956 0.837716
C 8.36676 0.76704 0.914249
C 9.83961 -0.959414 -0.433692
C 8.6678 -2.85084 -1.86138
C 6.04731 -3.02262 -1.93432
C 12.6511 -0.800299 -0.37341
C -9.01607 -13.7351 0.850377
C 1.80337 12.6472 0.64194
C -2.1592 5.14289 0.210704
C -0.182737 6.40088 1.556
C 2.26011 6.82871 0.347899
C 2.72895 6.14652 -2.02635
C -0.27231 6.43773 4.29875
C 1.72797 7.22291 5.67088
C 4.04553 7.99675 4.43292
C 4.30215 7.804 1.90352
O 3.14772 5.69242 -4.12603
O -3.58632 7.45572 -0.183114
O -0.321253 12.4777 0.99135
H 1.53162 -5.53973 -0.596586
H -5.31882 7.60936 -0.839416
H -1.74233 -7.43721 -4.11469
H -4.05554 -11.5542 -4.16269
H -7.82271 -9.47225 2.77903
H -5.54276 -5.39951 2.79812
H 4.58655 1.97439 1.87064
H 9.26174 2.24594 2.02503
H 9.81259 -4.18707 -2.92227
H 5.14516 -4.48564 -3.06816
H 13.4979 -2.57626 0.298388
H 13.3486 0.708836 0.86814
H 13.4256 -0.433314 -2.26843
H -9.62003 -15.5995 0.163839
H -10.605 -12.41 0.833747
H -8.17741 -13.8955 2.73349
H -2.02087 5.81922 5.19051
H 1.68129 7.28489 7.71972
H 5.5575 8.71088 5.62212
H 6.04221 8.33936 0.948642
H -2.12008 8.82578 0.896108

[FR-NORM-COORD]
Vibration 1
-0.000188973 0 0
0.000377945 0.000188973 0
-0.000188973 -0.000188973 0.000188973
0.000944863 0.000566918 0.000377945
-0.000377945 0.000188973 -0.00132281
0.000377945 -0.00075589 0
0.00075589 -0.0147399 -0.000566918
0 0 0
0 0 0
0 0 0
0 0 0
0 0 0
0 0 0
0 0 0
0 0 0
0 0 0
0 0 0
0 0 0
0 0 0
0 0 0
0 0 0
0 0 0
0 0 0
0 0 0
0 0.00132281 -0.00113384
-0.0702978 0.0377945 -0.0313695
-0.0292908 0.0950532 -0.00642507
0.0100155 -0.00604712 -0.00170075
-0.000188973 -0.000566918 -0.0020787
0.00585815 -0.0115273 0.0170075
-0.00132281 -0.0020787 0.00151178
0.00170075 0.000944863 -0.00132281
0.00132281 -0.00132281 0.000944863
0 -0.000188973 0.00151178
-0.0145509 -0.0493218 -0.0168186
0.00188973 0.00396842 -0.000566918
0 0.000188973 -0.000188973
0.00491329 -0.230358 -0.0604712
-0.000188973 0 0
0 0 0
-0.000188973 0 0
-0.000188973 0.000188973 -0.000188973
0.00075589 -0.00188973 0.000944863
0.000377945 -0.00075589 0.000188973
0.000188973 -0.000188973 0
-0.000188973 -0.000188973 0
0 -0.000188973 0
0.000188973 -0.000188973 0
0.000188973 -0.000188973 0
0 0 0
0 0 0
0 0 0
0.000188973 -0.0124722 0.0041574
0.00245664 0.00434637 0.0041574
-0.000377945 0.00170075 0
0.00340151 -0.00132281 0.000944863
1.14442 -0.185193 0.613405
Vibration 2
0.00434637 -0.00188973 -0.00869274
0.00434637 -0.00396842 -0.00472431
0.00642507 -0.00510226 -0.0149288
0.00831479 -0.00396842 -0.0268341
0.00850377 -0.00188973 -0.0306136
0.00642507 -0.000566918 -0.0230547
0.0096376 -0.00151178 -0.0400622
0.00661404 0.00188973 -0.0296687
0.00661404 0.00434637 -0.0355268
0.0020787 -0.000566918 0.00359048
0.00453534 -0.013984 0.0160627
0.00226767 -0.0130391 0.0285349
-0.00264562 0.00170075 0.0283459
-0.00510226 0.0151178 0.0162516
-0.00264562 0.013795 0.00377945
-0.00434637 0.000944863 0.041196
0.00642507 -0.00793685 -0.0122832
0.00699199 0.00321253 -0.02759
0.00718096 0 -0.0245664
0.00699199 -0.0149288 -0.00566918
0.00661404 -0.0262672 0.0096376
0.00642507 -0.0226767 0.0062361
0.00699199 -0.0183303 -0.00245664
-0.00850377 0.0147399 0.0423299
-0.027779 0.0534792 0.160627
0.00453534 -0.000944863 -0.0359048
-0.00377945 -0.000566918 -0.0234326
0.00132281 0.00548021 -0.0111494
0.00736993 0.0272121 -0.0160627
-0.0164406 -0.0100155 -0.0238105
-0.0215429 -0.0190862 -0.0113384
-0.013984 -0.0192752 0.00264562
-0.00321253 -0.00774788 0.00283459
0.0134171 0.0434637 -0.0183303
0.0062361 -0.00132281 -0.0425188
-0.034771 0.00548021 0.0942973
0.00245664 -0.00472431 0.00642507
0.00850377 -0.00283459 -0.0491329
0.00831479 -0.0253223 0.0158737
0.0041574 -0.0234326 0.0381725
-0.00869274 0.0264562 0.0162516
-0.00434637 0.0239995 -0.00566918
0.00718096 0.0143619 -0.0419519
0.0075589 0.00888171 -0.0366607
0.00642507 -0.0377945 0.0239995
0.00642507 -0.0315584 0.0179524
0.00434637 -0.0181414 0.00132281
0.00736993 -0.0171965 -0.0041574
0.00944863 -0.0222988 -0.00226767
-0.00850377 0.0103935 0.0538572
-0.0075589 0.0156847 0.0300466
-0.0122832 0.0270231 0.0451645
-0.0217318 -0.0102045 -0.034204
-0.0311805 -0.0268341 -0.0113384
-0.0171965 -0.0296687 0.0128501
0.00245664 -0.00736993 0.0134171
-0.00264562 -0.00359048 -0.02759
Vibration 3
0.00264562 0.00377945 -0.0107714
0.00264562 0.00340151 -0.013984
0.00264562 0.00321253 -0.0181414
0.00377945 0.00377945 -0.0194642
0.00359048 0.00396842 -0.0190862
0.00321253 0.0041574 -0.0147399
0.00472431 0.0041574 -0.0243775
0.00321253 0.00472431 -0.0141729
0.00321253 0.00529123 -0.013984
0.0020787 0.00396842 -0.00132281
-0.000566918 -0.00359048 0.00491329
-0.00075589 -0.00359048 0.0153068
0.00151178 0.0041574 0.0194642
0.00396842 0.0119053 0.0134171
0.0041574 0.0117163 0.00302356
0.000944863 0.00321253 0.0298577
0.00283459 0.00170075 -0.0202201
0.00529123 -0.0147399 -0.000377945
0.00548021 -0.0164406 -0.00283459
0.00264562 -0.000944863 -0.0255113
-0.000188973 0.0158737 -0.0455424
-0.000377945 0.0168186 -0.0427078
0.00283459 -0.00245664 -0.0283459
0.00453534 0.0096376 0.0359048
0.013984 -0.0311805 -0.0381725
-0.0020787 0.00188973 -0.0115273
-0.0141729 -0.00340151 0.0105825
-0.00132281 -0.00396842 0.0364717
0.0232436 -0.00132281 0.0404401
-0.0425188 -0.00774788 0.0096376
-0.0561249 -0.0119053 0.0317474
-0.0425188 -0.0122832 0.0568808
-0.0164406 -0.00869274 0.0593374
0.0449755 0.00283459 0.0440306
0.00396842 0.0041574 -0.020976
0.0132281 -0.00566918 -0.0302356
0.00302356 0.00359048 -0.0128501
0.0103935 0.0075589 -0.0372276
-0.00226767 -0.00944863 0.00151178
-0.00264562 -0.00944863 0.0202201
0.00566918 0.0179524 0.0166296
0.0062361 0.0175745 -0.00188973
0.00718096 -0.0264562 0.0170075
0.00774788 -0.0294797 0.0128501
-0.00226767 0.0279679 -0.0631168
-0.00302356 0.0302356 -0.0576366
0.00283459 -0.00718096 -0.0408181
0.00510226 -0.0107714 -0.0196532
0.000566918 0.00925966 -0.0270231
0.0041574 0.00661404 0.0445975
0.00396842 0.00888171 0.0332592
0.00774788 0.0175745 0.0351489
-0.0525344 -0.0075589 -0.00944863
-0.0772898 -0.0151178 0.0313695
-0.0540462 -0.0158737 0.0738883
-0.00585815 -0.00925966 0.0782347
-0.00510226 0.000944863 -0.00472431
Vibration 4
0.00831479 -0.00850377 0.00907068
0.00812582 -0.0113384 0.00434637
0.0105825 -0.0128501 0.00642507
0.013984 -0.0109604 0.0126612
0.013984 -0.00831479 0.0145509
0.0113384 -0.00699199 0.0154958
0.0141729 -0.00907068 0.0102045
0.0115273 -0.00359048 0.0215429
0.0115273 -0.000944863 0.0272121
0.0041574 -0.0062361 0.00396842
-0.00377945 0.00075589 -0.00396842
-0.0109604 0.00491329 -0.0119053
-0.0102045 0.0020787 -0.0119053
-0.000944863 -0.00566918 -0.00340151
0.0062361 -0.0096376 0.00472431
-0.0194642 0.0075589 -0.0213539
0.0111494 -0.0183303 -0.000566918
0.0194642 -0.0317474 0.0103935
0.0202201 -0.0376055 0.00264562
0.0120942 -0.0296687 -0.0160627
0.00359048 -0.0162516 -0.0272121
0.00302356 -0.0105825 -0.0194642
0.0126612 -0.0360938 -0.0247554
-0.0215429 0.00718096 -0.0236216
-0.062172 0.0665184 0.0132281
0.00831479 -0.00359048 0.00359048
0.00170075 0.00944863 0.00132281
0.00245664 0.0130391 0.00434637
0.0181414 -0.0153068 0.0156847
-0.0041574 0.02759 0.00075589
-0.0156847 0.0610381 -0.00151178
-0.0219208 0.0767229 -0.00340151
-0.0126612 0.0531013 -0.00075589
0.0315584 -0.0398732 0.0236216
0.00151178 -0.0100155 -0.0100155
-0.061983 0.020598 -0.00850377
0.00642507 -0.0126612 -0.00170075
0.00245664 -0.0190862 -0.013984
-0.00453534 0.00302356 -0.00377945
-0.0175745 0.0105825 -0.0181414
0.000377945 -0.00831479 -0.00283459
0.0130391 -0.0153068 0.0111494
0.0257003 -0.0379835 0.0247554
0.0270231 -0.047999 0.0111494
-0.00264562 -0.00982658 -0.0419519
-0.00396842 0.000377945 -0.0279679
0.0109604 -0.041385 -0.0368497
0.0200311 -0.0440306 -0.0190862
0.00736993 -0.02759 -0.0251334
-0.0309915 0.013606 -0.0326923
-0.0153068 0.0149288 -0.0156847
-0.020976 -0.00642507 -0.0251334
0.000944863 0.0149288 0.00188973
-0.0198421 0.0763449 -0.0020787
-0.0336371 0.107336 -0.00680301
-0.0162516 0.0625499 -0.00170075
-0.00302356 -0.000188973 -0.013795
Vibration 5
0.0096376 -0.00529123 0.00982658
0.00944863 -0.00604712 0.0117163
0.0113384 -0.00680301 0.00548021
0.0117163 -0.00604712 0.00264562
0.0120942 -0.00548021 0.00434637
0.0107714 -0.00472431 0.0062361
0.0100155 -0.00661404 0.00453534
0.0107714 -0.00264562 0.00396842
0.0109604 -0.000377945 0.0020787
0.00718096 -0.00396842 0.00850377
0.0132281 -0.00718096 0.0124722
0.0062361 -0.00302356 0.00680301
-0.0075589 0.00434637 -0.00321253
-0.0117163 0.0062361 -0.00566918
-0.00396842 0.00188973 0.000188973
-0.0158737 0.00907068 -0.0096376
0.0115273 -0.00812582 -0.000377945
0.0160627 0.0255113 -0.0493218
0.0162516 0.0243775 -0.0561249
0.0130391 -0.0124722 -0.0124722
0.00925966 -0.0474321 0.0370386
0.00888171 -0.0445975 0.0425188
0.0132281 -0.013984 -0.0198421
-0.034582 0.0202201 -0.0243775
-0.0289128 -0.0143619 -0.062361
0.00283459 -0.00510226 0.00812582
-0.0041574 0.00132281 0.0124722
-0.00642507 0.0183303 0.0143619
-0.00944863 0.0476211 0.00548021
-0.0062361 -0.00944863 0.0124722
-0.00774788 -0.0141729 0.0173855
-0.00699199 -0.00850377 0.0226767
-0.0062361 0.00661404 0.0215429
-0.0128501 0.0723765 -0.000566918
-0.00718096 -0.0100155 0.0107714
-0.0243775 -0.00377945 -0.0292908
0.00793685 -0.00680301 0.0171965
-0.00888171 -0.0171965 0.013606
0.0232436 -0.0124722 0.0196532
0.0103935 -0.00510226 0.00944863
-0.020976 0.0111494 -0.0124722
-0.00736993 0.00340151 -0.00188973
0.0188973 0.0523454 -0.0808803
0.0192752 0.0517785 -0.0948642
0.00642507 -0.0765339 0.0708647
0.00699199 -0.0721875 0.0795575
0.0149288 -0.0102045 -0.0122832
0.0170075 -0.00718096 -0.0302356
0.00793685 -0.0249444 -0.0243775
-0.0404401 0.0238105 -0.0291018
-0.0264562 0.0296687 -0.0366607
-0.0502667 0.0149288 -0.0177634
-0.00642507 -0.0141729 0.00869274
-0.0096376 -0.0224877 0.0177634
-0.00661404 -0.0168186 0.027401
-0.00566918 0.0117163 0.0255113
-0.0160627 -0.0062361 0.0187083
Vibration 6
0.00188973 -0.00377945 0.00925966
0.00245664 -0.00113384 0.0151178
0.000566918 -0.000377945 0.0115273
-0.00075589 -0.00113384 0.0102045
-0.00075589 -0.00302356 0.00680301
0.00075589 -0.00396842 0.00151178
-0.0020787 -0.00340151 0.00831479
0.000944863 -0.00264562 -0.0143619
0.000944863 -0.000188973 -0.0292908
0.0041574 -0.00472431 0.0102045
0.0540462 -0.0332592 0.0459203
0.0542351 -0.0332592 0.0447865
0.00188973 -0.00472431 0.00699199
-0.0468652 0.0224877 -0.0272121
-0.0445975 0.020976 -0.0251334
0.00585815 -0.00680301 0.00907068
0.000566918 0.00340151 0.00548021
0.00132281 -0.00226767 0.0120942
0.00132281 0.00529123 0.000377945
-0.000188973 0.0185193 -0.0183303
-0.00132281 0.0232436 -0.0234326
-0.00113384 0.0154958 -0.0113384
-0.000377945 0.0289128 -0.0336371
-0.0517785 0.0258892 -0.0370386
0.00283459 -0.00302356 0.00812582
-0.000566918 -0.00359048 0.00736993
0.00245664 -0.00434637 0.00359048
0.00075589 -0.00680301 -0.000944863
-0.000944863 -0.0171965 0.00170075
0.00793685 -0.0020787 0.00377945
0.0096376 0.0020787 -0.00113384
0.00585815 0.00453534 -0.00661404
0.00170075 0.000377945 -0.00680301
-0.00264562 -0.0258892 0.00321253
-0.00075589 -0.00340151 0.0105825
0.00302356 -0.00377945 0.00831479
0.00453534 0.000188973 0.0215429
-0.00113384 -0.00245664 0.0117163
0.0929745 -0.05518 0.0733214
0.0933525 -0.0548021 0.0718096
-0.0861715 0.0442196 -0.055369
-0.0818251 0.0406291 -0.0504557
0.00226767 -0.0117163 0.0257003
0.00226767 0.000944863 0.00529123
-0.00245664 0.0332592 -0.0374166
-0.00245664 0.0194642 -0.0154958
0.0109604 0.0257003 -0.0563138
0.00132281 0.0194642 -0.0230547
-0.013606 0.0504557 -0.034771
-0.0374166 0.0179524 -0.0283459
-0.0466762 0.0309915 -0.104313
-0.109415 0.0500777 -0.00925966
0.0105825 -0.00359048 0.00774788
0.013606 0.00396842 -0.00113384
0.00661404 0.0096376 -0.0105825
-0.00113384 0.00170075 -0.0109604
0.00264562 -0.00340151 0.00585815
Vibration 7
0.0162516 -0.0122832 0.0124722
0.0160627 -0.00774788 0.0109604
0.0109604 -0.00453534 0.00642507
0.00585815 -0.00736993 -0.000566918
0.00585815 -0.0119053 -0.000188973
0.0111494 -0.0149288 0.00888171
0.00226767 -0.013984 -0.00982658
0.0107714 -0.0222988 0.0145509
0.0103935 -0.0291018 0.0202201
0.013606 -0.0109604 0.013984
-0.0162516 0.00245664 -0.00396842
-0.0357158 0.0132281 -0.0124722
-0.0239995 0.0109604 -0.00283459
0.0126612 -0.00566918 0.0196532
0.0311805 -0.0162516 0.0279679
-0.0523454 0.0262672 -0.0175745
0.0103935 0.00661404 0.00718096
0.00075589 0.0134171 0.0062361
-0.000377945 0.0306136 0.00151178
0.00850377 0.0410071 -0.00226767
0.0181414 0.0326923 0.000944863
0.0190862 0.0153068 0.00585815
0.00736993 0.0627389 -0.0105825
-0.0546131 0.034204 -0.0168186
0.0100155 -0.0164406 0.0215429
-0.000566918 -0.0107714 -0.0134171
-0.00377945 -0.00831479 -0.0111494
0 -0.0130391 -0.00548021
0.00377945 -0.0134171 -0.00453534
-0.0113384 -0.00377945 -0.0115273
-0.0128501 -0.00736993 -0.00699199
-0.00736993 -0.0153068 -0.00151178
-0.00151178 -0.0177634 -0.00075589
0.00774788 -0.0143619 -0.00359048
0.00151178 -0.0117163 -0.0234326
0.00680301 -0.0145509 0.0020787
0.0194642 -0.00548021 0.0126612
0.00283459 -0.0130391 -0.0279679
-0.0260782 0.00491329 -0.0117163
-0.0610381 0.0243775 -0.027401
0.0257003 -0.00982658 0.0298577
0.0582036 -0.027779 0.0440306
-0.0062361 0.00604712 0.00850377
-0.00793685 0.0362827 0.000377945
0.0249444 0.0400622 -0.000944863
0.0264562 0.00907068 0.00812582
0.0245664 0.0638727 -0.0292908
-0.000188973 0.0574477 0
-0.00283459 0.0854156 -0.0103935
-0.0878723 0.0519675 -0.0360938
-0.0338261 0.0595264 0.00718096
-0.0474321 -0.00151178 -0.0232436
-0.0154958 0.00245664 -0.0154958
-0.0185193 -0.00434637 -0.00718096
-0.00831479 -0.0190862 0.00188973
0.00245664 -0.0230547 0.00340151
-0.00170075 -0.00982658 -0.0222988
Vibration 8
-0.0105825 0.00302356 0.0196532
-0.0103935 0.00170075 0.0211649
-0.00869274 0.00075589 0.0141729
-0.00793685 0.00113384 0.00793685
-0.00793685 0.00264562 0.00982658
-0.00944863 0.00340151 0.0190862
-0.00434637 0.0041574 -0.00472431
-0.00944863 0.00491329 0.0268341
-0.00944863 0.00566918 0.0353379
-0.0075589 0.00113384 0.0107714
0.0062361 0.00774788 0.0075589
0.0156847 0.00283459 -0.00340151
0.0109604 -0.00907068 -0.0107714
-0.00453534 -0.0149288 -0.00925966
-0.013795 -0.0096376 0.00170075
0.0236216 -0.013984 -0.0202201
-0.00850377 -0.00075589 0.0062361
-0.00264562 0.0213539 -0.0281569
-0.00226767 0.0230547 -0.041574
-0.00736993 0.00113384 -0.0190862
-0.0130391 -0.0230547 0.0175745
-0.0132281 -0.0236216 0.0298577
-0.00736993 0.00453534 -0.0360938
0.0222988 -0.0291018 -0.027401
0.0534792 -0.00472431 0.041385
-0.00321253 0.00718096 -0.0128501
-0.00699199 0.0100155 -0.0096376
0.00170075 -0.00566918 0.00245664
0.0117163 -0.0156847 0.00736993
-0.0241885 0.027779 -0.0103935
-0.0294797 0.027779 -0.00264562
-0.0179524 0.00907068 0.00718096
-0.00321253 -0.00699199 0.00982658
0.0221098 -0.0257003 0.0115273
0.00718096 0.0096376 -0.0364717
0.0453534 0.00793685 -0.00132281
-0.0119053 0.000944863 0.0253223
0.0122832 0.0119053 -0.0495108
0.0100155 0.0170075 0.013606
0.0270231 0.00793685 -0.00566918
-0.00944863 -0.0238105 -0.0160627
-0.0257003 -0.0145509 0.00340151
0.00151178 0.0370386 -0.0440306
0.0020787 0.041196 -0.0695419
-0.0171965 -0.041196 0.0359048
-0.0171965 -0.0423299 0.0570697
0.000377945 0.00453534 -0.0459203
-0.00170075 0.00283459 -0.0370386
-0.020787 0.0103935 -0.0406291
0.0357158 -0.0313695 -0.0330702
0.0143619 -0.0387394 -0.0294797
0.0173855 -0.027779 -0.0251334
-0.0325033 0.041196 -0.0175745
-0.0421409 0.041196 -0.00340151
-0.0215429 0.00793685 0.0122832
0.00548021 -0.020787 0.0175745
0.0062361 0.0115273 -0.0381725
Vibration 9
0.00340151 0.000188973 0.0154958
0.00340151 0.00226767 0.00283459
0.00170075 0.00302356 -0.00283459
0.00170075 0.00264562 -0.00510226
0.00170075 0.000944863 0.00491329
0.00283459 0 0.0238105
0 -0.000566918 -0.0075589
0.00264562 0.000377945 0.0532903
0.00264562 0.00113384 0.0822031
0.00642507 -0.00132281 0.0132281
0.0213539 -0.00245664 0.0171965
0.0230547 -0.00302356 0.00869274
0.00831479 -0.00283459 -0.0041574
-0.00510226 -0.00302356 -0.00699199
-0.00548021 -0.00264562 0.00226767
0.0096376 -0.00226767 -0.0130391
0.0020787 0.000566918 -0.00434637
0.00472431 -0.0258892 0.0285349
0.00510226 -0.0362827 0.0364717
0.0020787 -0.0175745 0.00925966
-0.00132281 0.0124722 -0.0279679
-0.00170075 0.0211649 -0.034393
0.00264562 -0.0315584 0.0217318
-0.0128501 0.00283459 -0.034204
0.00680301 0.00132281 0.00680301
-0.00359048 0.00510226 -0.0164406
-0.00907068 0.0132281 -0.0154958
-0.00510226 0.00680301 -0.0096376
-0.0134171 0.0379835 -0.0200311
-0.0194642 0.0192752 -0.0158737
-0.0153068 -0.00548021 -0.00812582
0.00075589 -0.0383614 0.00151178
0.00529123 -0.0326923 0.00151178
-0.0200311 0.0642507 -0.0272121
-0.00264562 0.00302356 -0.034204
0.00302356 0.00245664 -0.0151178
0.00566918 0.00340151 -0.00226767
-0.00264562 -0.0020787 -0.0355268
0.0317474 -0.00245664 0.0262672
0.0349599 -0.00359048 0.0113384
-0.0151178 -0.00359048 -0.0158737
-0.0158737 -0.00359048 0.00075589
0.00680301 -0.0391173 0.0476211
0.00793685 -0.0585815 0.0640617
-0.00359048 0.0287238 -0.0508336
-0.00510226 0.0442196 -0.0614161
-0.0111494 -0.0340151 0.0336371
0.00453534 -0.0306136 0.0194642
0.0149288 -0.0436527 0.0247554
-0.0105825 0.00472431 -0.041196
-0.00888171 0.00736993 -0.0515895
-0.034393 0.000188973 -0.0247554
-0.0309915 0.0425188 -0.0222988
-0.0238105 -0.0020787 -0.00850377
0.00888171 -0.0672742 0.00869274
0.0168186 -0.0561249 0.00925966
-0.0096376 0.00793685 -0.0323143
Vibration 10
0.00396842 0.00245664 -0.0143619
0.0041574 0.00642507 -0.0306136
0.00113384 0.00812582 -0.0330702
-0.0020787 0.00661404 -0.0298577
-0.0020787 0.00264562 -0.0145509
0.000944863 0.00075589 -0.0020787
-0.00529123 0.00132281 -0.00642507
0.00075589 -0.00113384 0.0281569
0.000566918 -0.0020787 0.0566918
0.00699199 0.000944863 -0.00680301
0.0132281 -0.00812582 0.00245664
0.0119053 -0.0075589 0.0075589
0.00340151 0.00226767 0.00302356
-0.00075589 0.0100155 -0.00453534
0.00132281 0.00850377 -0.00907068
0.000377945 0.00340151 0.0075589
0.000944863 0.0109604 -0.0279679
-0.00585815 0.0187083 -0.0323143
-0.0062361 0.0149288 -0.013984
0.00075589 0.00283459 0.00944863
0.00793685 -0.00226767 0.0102045
0.00812582 0.00226767 -0.00907068
0.000944863 -0.0132281 0.0438416
-0.0179524 0.0198421 -0.00472431
0.00151178 -0.0173855 0.00075589
-0.00529123 -0.00151178 0
-0.00264562 -0.00831479 0.0020787
-0.00396842 -0.00472431 0.000566918
0.00245664 -0.0221098 0.00680301
0.00151178 -0.0151178 0.00226767
-0.00151178 -0.00340151 0
-0.00982658 0.0166296 -0.00321253
-0.0107714 0.0162516 -0.00340151
0.00812582 -0.0360938 0.0111494
-0.00585815 -0.000188973 0.0122832
0.00302356 -0.00699199 0.0151178
0.00680301 0.00793685 -0.0379835
-0.00642507 0.00302356 0.0147399
0.0185193 -0.0153068 0.00510226
0.0168186 -0.0141729 0.0145509
-0.00585815 0.0168186 -0.00699199
-0.00170075 0.013984 -0.0143619
-0.0109604 0.0264562 -0.0478101
-0.0120942 0.0202201 -0.0162516
0.013606 -0.0107714 0.0270231
0.0141729 -0.0020787 -0.00812582
-0.034204 0.0538572 0.268152
-0.0096376 0.122643 -0.115273
0.0474321 -0.241129 0.0196532
-0.0211649 0.0198421 -0.00188973
-0.0117163 0.0272121 -0.0234326
-0.034204 0.0238105 0.00264562
0.00736993 -0.0289128 0.00396842
0.0020787 -0.00793685 0.000188973
-0.0151178 0.0317474 -0.00566918
-0.0168186 0.0306136 -0.0062361
-0.00245664 -0.00434637 0.013795
Vibration 11
-0.00321253 0.00377945 -0.0124722
-0.00283459 0.00396842 -0.0257003
-0.00245664 0.00359048 -0.0270231
-0.00264562 0.00359048 -0.0279679
-0.00226767 0.00359048 -0.0151178
-0.00283459 0.00396842 -0.00075589
-0.00113384 0.00453534 -0.0103935
-0.00283459 0.00661404 0.0319364
-0.00283459 0.0100155 0.0642507
-0.00188973 0.00321253 -0.0075589
0.0062361 -0.00434637 0.000566918
0.00869274 -0.00585815 0.00510226
0.00226767 0.000188973 0.00113384
-0.00642507 0.00774788 -0.00718096
-0.00812582 0.00850377 -0.0113384
0.00566918 -0.0020787 0.00661404
-0.00264562 0.00453534 -0.0181414
-0.0109604 0.0132281 -0.0222988
-0.0115273 0.0122832 -0.00491329
-0.00321253 0.00170075 0.0175745
0.00566918 -0.00529123 0.0200311
0.00585815 -0.00377945 0.0020787
-0.00377945 0.00812582 0.0291018
-0.00264562 0.00510226 0.00113384
-0.0228657 0.00661404 -0.0132281
0.00321253 0.000377945 -0.00604712
0.00680301 -0.00982658 -0.00188973
0.00680301 -0.00642507 -0.000377945
0.013795 -0.0151178 0.00340151
0.00907068 -0.0228657 -0.00151178
0.00718096 -0.0202201 -0.000188973
0.00170075 -0.00264562 0.000377945
0.00151178 0.00434637 -0.000188973
0.0215429 -0.0217318 0.00642507
0.00718096 0.0041574 0.0041574
-0.0190862 -0.00340151 0.00434637
-0.00302356 0.00377945 -0.0317474
0.00566918 0.00907068 0.00925966
0.0107714 -0.00907068 0.00302356
0.0156847 -0.0115273 0.0117163
-0.0117163 0.0126612 -0.0103935
-0.0141729 0.013606 -0.0170075
-0.0170075 0.0200311 -0.0376055
-0.0183303 0.0192752 -0.00869274
0.0119053 -0.0122832 0.0357158
0.0130391 -0.0100155 0.00434637
0.0192752 -0.0808803 -0.238105
-0.00736993 -0.167241 0.244342
-0.0239995 0.292719 0.0750221
0.0020787 0.00132281 0.00699199
-0.00340151 0.00377945 -0.0128501
-0.0115273 0.0145509 0.00585815
0.0126612 -0.034204 -0.00245664
0.00944863 -0.0302356 0.000188973
-0.00245664 0.00472431 0.00113384
-0.00283459 0.0177634 -0.000188973
0.00925966 -0.00321253 0.0115273
Vibration 12
0.0126612 -0.00340151 -0.00869274
0.0122832 0.00245664 -0.0124722
0.0075589 0.00548021 -0.0107714
0.00359048 0.00340151 -0.00264562
0.00340151 -0.00264562 -0.000566918
0.00831479 -0.00585815 -0.00642507
-0.00604712 -0.00736993 0.00718096
0.00793685 -0.0124722 -0.0115273
0.0075589 -0.0188973 -0.0179524
0.0147399 -0.00453534 -0.00340151
0.0075589 -0.00680301 -0.00264562
0.00170075 -0.00377945 0.00132281
0.00340151 0.0020787 0.00453534
0.0143619 0.00264562 0.00642507
0.0200311 -0.00075589 0.00264562
-0.00680301 0.00680301 0.00604712
0.00774788 0.00377945 -0.0126612
0.0119053 -0.00170075 -0.00907068
0.0126612 -0.0151178 0.00075589
0.00907068 -0.0228657 0.00699199
0.00491329 -0.0132281 -0.00245664
0.00434637 0.000377945 -0.0122832
0.00982658 -0.0387394 0.0194642
-0.0179524 0.0215429 0.000566918
0.062172 -0.0657625 0.020787
-0.0177634 -0.00340151 0.0111494
-0.0215429 0.00888171 0.00491329
-0.0279679 0.0192752 -0.00434637
-0.0328812 0.0119053 -0.00321253
-0.0141729 0.0183303 0.00510226
-0.0164406 0.0404401 -0.00434637
-0.0255113 0.0515895 -0.0145509
-0.0304246 0.0402512 -0.0143619
-0.041196 0.00585815 -0.00340151
-0.0334482 -0.0111494 0.0183303
0.0583925 -0.00680301 0.0264562
0.0158737 0.00453534 -0.0158737
-0.0328812 -0.0192752 0.0151178
0.00548021 -0.0107714 -0.00566918
-0.00491329 -0.00529123 0.00151178
0.0181414 0.00566918 0.0107714
0.0279679 0.000188973 0.00359048
0.0149288 0.00302356 -0.0122832
0.0158737 -0.0200311 0.00453534
0.00188973 -0.0170075 -0.000944863
0.00113384 0.00699199 -0.0185193
0.0062361 -0.0861715 -0.102612
0.0151178 -0.125289 0.121698
0.00831479 0.0884392 0.0430858
-0.0315584 0.0268341 -0.00188973
-0.00699199 0.034582 -0.00302356
-0.0241885 0.013606 0.00264562
-0.00680301 0.00850377 0.0124722
-0.0109604 0.0500777 -0.00453534
-0.027401 0.0682191 -0.0221098
-0.0359048 0.0462983 -0.0213539
-0.0332592 -0.0020787 0.0062361
Vibration 13
-0.0105825 -0.0170075 -0.0119053
-0.0100155 -0.0232436 -0.0160627
-0.00491329 -0.0264562 -0.00566918
0 -0.0234326 -0.00170075
0.00075589 -0.0164406 -0.00132281
-0.00472431 -0.0134171 -0.00188973
0.00944863 -0.0120942 0.00302356
-0.00434637 -0.00566918 0.0117163
-0.0041574 0.00132281 0.0257003
-0.0160627 -0.0143619 -0.0126612
-0.0132281 -0.0213539 -0.00604712
-0.0128501 -0.0217318 -0.000944863
-0.0162516 -0.0162516 -0.00226767
-0.0232436 -0.0075589 -0.0113384
-0.0230547 -0.0075589 -0.0164406
-0.0119053 -0.0192752 0.00566918
-0.00529123 -0.0215429 0.00377945
-0.0198421 -0.0196532 0.0141729
-0.0215429 0.00132281 0.0143619
-0.00831479 0.020409 0.00396842
0.00642507 0.0145509 0
0.0075589 -0.00699199 0.000188973
-0.00982658 0.0487549 -0.00170075
0.000566918 -0.0232436 0.0168186
0.0351489 0.00774788 -0.00548021
0.0171965 -0.0130391 -0.00377945
0.0143619 -0.00925966 -0.00283459
0.00793685 0.0272121 -0.00188973
0.020787 0.0444086 -0.00396842
0.0168186 -0.0255113 -0.00226767
0.00434637 0.00264562 -0.000377945
-0.0107714 0.0496998 0.000377945
-0.00850377 0.0600933 -0.000188973
0.0334482 0.061983 -0.00548021
0.013606 -0.0130391 -0.00075589
0.0366607 0.020787 0.00850377
-0.013795 -0.0255113 -0.0249444
0.0147399 -0.013606 -0.00377945
-0.00982658 -0.0268341 -0.00491329
-0.00888171 -0.0268341 0.00453534
-0.0283459 -0.00113384 -0.013984
-0.0279679 -0.00226767 -0.0221098
-0.0300466 -0.0326923 0.0196532
-0.0332592 0.00377945 0.020598
0.0168186 0.0272121 -0.00472431
0.0188973 -0.0109604 -0.00359048
0.00736993 0.0672742 0.0258892
-0.0230547 0.0752111 -0.0262672
-0.0147399 0.0260782 -0.00793685
0.0105825 -0.0308025 0.0283459
-0.00850377 -0.034204 0.0168186
0.00907068 -0.00850377 0.0143619
0.0283459 -0.0602823 -0.00359048
0.00566918 -0.00850377 0
-0.0236216 0.0752111 0.00151178
-0.0181414 0.0931635 0.000566918
0.00869274 -0.0128501 0.0062361
Vibration 14
0.00548021 -0.0119053 -0.0291018
0.00529123 -0.0075589 -0.0419519
0.00151178 -0.00529123 -0.0243775
-0.00283459 -0.0075589 0.000566918
-0.00283459 -0.0107714 0.00699199
0.00170075 -0.013606 -0.00944863
-0.0041574 -0.0109604 0.0249444
0.00132281 -0.020598 -0.00661404
0.000944863 -0.0285349 -0.00642507
0.00699199 -0.0128501 -0.0224877
0.00151178 -0.0236216 -0.013795
-0.00226767 -0.0222988 0
-0.000944863 -0.0096376 0.00453534
0.0062361 0.000377945 -0.00226767
0.0102045 -0.00245664 -0.0156847
-0.0075589 -0.00812582 0.0185193
0.00132281 0.000566918 -0.0215429
-0.00699199 0.00888171 -0.0251334
-0.00774788 0.0115273 -0.0117163
0.00113384 0.00510226 0.0062361
0.0100155 -0.00075589 0.00680301
0.0103935 -0.00264562 -0.0075589
0.000566918 0.00510226 0.0257003
-0.0215429 0.0158737 0.013795
0.0559359 0.157603 0.0572587
-0.0062361 -0.0124722 0.0306136
-0.00585815 -0.00680301 0.0243775
-0.00510226 -0.0219208 0.0200311
-0.0243775 -0.0096376 0.0128501
-0.00907068 0.0202201 0.0234326
-0.00340151 0.0141729 0.0188973
0.00699199 -0.0234326 0.0151178
0.00604712 -0.0417629 0.0164406
-0.0440306 -0.00170075 0.00699199
-0.00510226 -0.0111494 0.0260782
0.0357158 0.0769118 -0.109604
0.00812582 -0.0062361 -0.0608492
0.0117163 -0.00075589 -0.0147399
-0.000377945 -0.0334482 -0.0185193
-0.0062361 -0.0304246 0.00661404
0.00869274 0.00982658 0.00264562
0.0160627 0.00472431 -0.020598
-0.0134171 0.0126612 -0.0366607
-0.0149288 0.0177634 -0.013984
0.0166296 -0.00472431 0.0188973
0.0181414 -0.00774788 -0.00699199
-0.00245664 -0.00113384 0.0132281
-0.00774788 -0.00699199 0.0449755
0.0119053 0.0241885 0.0340151
-0.0313695 0.0160627 0.0221098
-0.0120942 0.0270231 -0.00188973
-0.0315584 0.0213539 0.0187083
-0.0164406 0.0453534 0.0264562
-0.0062361 0.0349599 0.0181414
0.0160627 -0.0368497 0.0115273
0.013795 -0.0697309 0.0151178
0.00774788 -0.000377945 -0.0105825
Vibration 15
-0.00340151 0.00396842 0.0228657
-0.00396842 0.0096376 0.0283459
-0.00944863 0.0126612 0.00548021
-0.013984 0.00925966 -0.0122832
-0.0147399 0.0041574 -0.00982658
-0.00944863 0.00113384 0.00226767
-0.0149288 0.00529123 -0.0126612
-0.0100155 -0.0122832 -0.00982658
-0.0107714 -0.0285349 -0.0226767
0.00642507 -0.00170075 0.0270231
0.00264562 0.0113384 0.0143619
0.00907068 0.00812582 0.00642507
0.0190862 -0.0075589 0.0107714
0.0304246 -0.0247554 0.0279679
0.0238105 -0.020598 0.0360938
0.0194642 -0.0062361 -0.00283459
-0.0096376 0.0124722 -0.00170075
-0.00264562 0.00736993 -0.00132281
-0.00188973 -0.00453534 -0.00113384
-0.00944863 -0.0103935 -0.0020787
-0.0171965 -0.00132281 -0.00774788
-0.0177634 0.0100155 -0.00736993
-0.00850377 -0.0279679 0.00340151
-0.027779 0.0102045 -0.0447865
0.0141729 0.0472432 -0.0308025
-0.00377945 0.000188973 -0.0122832
0.00245664 -0.0171965 -0.00604712
-0.00188973 0.00548021 -0.00548021
0.0115273 0.00264562 -0.0020787
0.0103935 -0.0544241 -0.00510226
0.0062361 -0.0495108 -0.0020787
-0.0103935 0.00170075 -0.00113384
-0.0143619 0.0298577 -0.00377945
0.0249444 0.00264562 0.00075589
0.00529123 0.0096376 0.00491329
0.0221098 0.0542351 0.0179524
0.000188973 0.0122832 0.0464873
0.00661404 0.0241885 0.00453534
-0.00699199 0.0251334 0.0102045
0.00453534 0.0188973 -0.0041574
0.0440306 -0.041196 0.0351489
0.0308025 -0.0323143 0.0478101
0.00264562 0.0109604 -0.000377945
0.00472431 -0.00982658 0.000566918
-0.0228657 -0.00359048 -0.0109604
-0.0245664 0.0164406 -0.0103935
-0.020598 -0.0366607 -0.00434637
-0.00132281 -0.0387394 0.0124722
-0.00321253 -0.0228657 0.00661404
-0.0457314 0.0258892 -0.0716206
-0.00566918 0.0364717 -0.0634948