[Molden Format]
[FREQ]
-443.2
8.8
19.2
21.3
25.6
26.4
29.0
43.0
46.9
49.3
60.4
67.8
85.2
107.0
126.5
133.5
141.4
151.3
174.6
181.8
192.2
207.4
219.6
226.6
242.1
258.2
263.5
290.1
301.1
321.4
332.4
345.6
350.1
355.9
362.1
386.9
396.6
416.6
458.6
467.2
486.4
494.2
506.7
509.8
523.8
542.1
545.0
550.2
567.8
572.6
601.6
608.4
611.5
615.7
618.2
627.8
638.0
662.6
688.6
708.8
715.9
733.7
743.3
758.8
762.4
786.1
829.9
841.7
853.9
868.8
880.5
882.8
896.7
900.9
942.2
966.0
972.4
987.8
1003.8
1006.4
1008.9
1010.1
1016.5
1017.2
1023.7
1032.4
1048.1
1070.8
1071.0
1081.3
1085.3
1102.4
1119.1
1127.0
1145.3
1178.8
1182.7
1183.7
1191.1
1200.1
1231.2
1231.7
1255.2
1263.6
1269.3
1279.0
1283.3
1284.3
1287.1
1295.9
1302.0
1303.7
1321.8
1330.0
1339.4
1340.4
1348.2
1354.2
1363.7
1379.2
1385.4
1393.0
1426.8
1482.4
1493.8
1510.2
1522.0
1528.8
1550.0
1555.0
1575.6
1596.8
1600.7
1647.6
1676.1
1698.1
1699.7
1707.8
1709.3
1721.8
1725.1
1813.6
1950.5
2450.9
2651.6
2654.4
2668.6
2673.4
2687.5
2730.9
2740.9
2742.8
2745.1
2748.5
2749.9
2751.3
2752.3
2756.7
2764.1
2764.4
2766.5
2768.1
2770.1
2779.9
2804.2
       
[FR-COORD]
C -0.984736 -3.86071 -1.22568
C 1.65181 -3.86071 -1.22568
C 2.96347 -1.55317 -1.22568
N 1.74989 0.696364 -1.22303
C -0.795386 0.695986 -1.20602
C -2.27258 -1.54069 -1.23267
N -2.03259 3.04775 -1.3657
C -4.93691 -1.35285 -1.27122
N -7.11198 -1.11437 -1.3315
C -2.36669 -6.25821 -1.20905
C -1.94831 -8.02302 -3.13997
C -3.24787 -10.2941 -3.15509
C -4.97262 -10.7947 -1.19657
C -5.39876 -9.06672 0.749276
C -4.08426 -6.78846 0.722064
O -6.10627 -13.0822 -1.43695
C 5.73853 -1.45112 -1.16256
C 6.94607 0.326734 0.37341
C 9.57297 0.414039 0.464684
C 11.006 -1.25818 -0.989461
C 9.79162 -3.02186 -2.54093
C 7.16811 -3.12069 -2.62804
C 13.8207 -1.18354 -0.907824
C -7.94819 -13.7438 0.403268
C -1.95965 4.71997 0.326734
C -0.752867 5.17936 3.16945
C 0.11395 7.92494 2.83005
C -1.58869 9.15119 1.15122
C -3.3193 7.19116 0.27401
C 2.09098 9.2213 3.91154
C 2.3391 11.7968 3.34066
C 0.641751 13.0138 1.73174
C -1.35739 11.6978 0.608303
O -5.61891 7.64508 -0.445597
O 0.212783 3.54758 4.42517
O -3.67363 5.79673 3.8437
H 2.68643 -5.63705 -1.16785
H -3.89737 6.75312 5.3517
H -0.605468 -7.59424 -4.64495
H -2.96725 -11.6836 -4.64098
H -6.72837 -9.4577 2.25955
H -4.3989 -5.41029 2.22799
H 5.8128 1.64482 1.49647
H 10.5042 1.79297 1.67014
H 10.9056 -4.31651 -3.68232
H 6.23137 -4.48621 -3.85145
H 14.5533 0.290262 0.355646
H 14.6233 -0.821275 -2.79113
H 14.6047 -2.99257 -0.246987
H -8.56915 -15.6131 -0.253223
H -9.52857 -12.4087 0.38078
H -7.09611 -13.884 2.28222
H 3.41133 8.27039 5.17785
H 3.88622 12.8702 4.18045
H 0.876455 15.0203 1.33679
H -2.6698 12.6479 -0.659892
H -6.57833 6.03692 -0.914249

[FR-NORM-COORD]
Vibration 1
-0.000377945 0.000377945 -0.000944863
0.000566918 0.00132281 -0.000566918
0.000944863 0 -0.000944863
-0.000566918 0.000944863 0.000377945
0.00170075 0.000377945 -0.00982658
0.00113384 0.000944863 -0.00359048
-0.0243775 -0.00359048 0.0325033
-0.000188973 0.000566918 -0.00188973
0 -0.00170075 0.000188973
0.000377945 0.000377945 0.000188973
0.000188973 0 0.000188973
0.000188973 0.000188973 0
0 0 0
0.000188973 0.000188973 0
-0.000188973 0.000188973 0
0.000188973 0.000377945 0.000188973
0.000377945 0 0.000188973
0.000566918 0 0
0.000377945 0 0
0.000377945 -0.000188973 0
0.000188973 0 0
0.000188973 0 0
0.000188973 0 0
0 0 0
0.0708647 -0.0241885 0.0608492
0.199555 -0.0498888 -0.165162
0.0366607 -0.00529123 0.00472431
-0.00283459 0.000377945 0.0470542
-0.0653845 -0.047999 0.208248
0.0181414 0.00453534 0.0075589
0.00113384 0.0117163 0.00188973
0.0041574 -0.00472431 -0.00075589
-0.00812582 -0.0171965 0.0115273
-0.00680301 -0.013984 0.00226767
-0.00529123 -0.00585815 0.0160627
-0.155335 0.0871164 -0.142485
0.000188973 0.000566918 -0.000566918
-0.118297 0.518541 -0.422165
0.000188973 -0.000188973 0
0 0.000377945 -0.000188973
-0.000188973 0.000377945 0
-0.000944863 0.000377945 -0.000188973
0.00321253 0 -0.000566918
0.00075589 0.000188973 -0.000188973
0.000188973 -0.000188973 -0.000377945
0.000188973 0 -0.000377945
0.000377945 0 0
0.000377945 0 -0.000188973
0.000377945 0 0
0.000188973 0 -0.000377945
-0.000188973 0 0
-0.000188973 -0.000188973 0
0.0302356 0.020409 0.00548021
-0.0020787 0.0151178 0.0020787
-0.00245664 -0.00699199 -0.0179524
-0.0162516 -0.0211649 0.0171965
-0.0103935 -0.0117163 0.0353379
Vibration 2
0.0102045 0.00472431 -0.00188973
0.0102045 0.000377945 -0.00132281
0.0141729 -0.0020787 -0.0075589
0.0179524 0.000188973 -0.0113384
0.0181414 0.00434637 -0.0126612
0.0141729 0.00680301 -0.00944863
0.0219208 0.00585815 -0.0190862
0.0145509 0.0117163 -0.0141729
0.0153068 0.0173855 -0.0187083
0.00585815 0.00718096 0.00548021
0.00434637 -0.000944863 0.0126612
0 0.00132281 0.0202201
-0.00302356 0.0122832 0.020409
-0.00151178 0.020598 0.0134171
0.00302356 0.0179524 0.00585815
-0.00736993 0.013795 0.0279679
0.0143619 -0.00680301 -0.0120942
0.020787 0.0020787 -0.0272121
0.020976 -0.0020787 -0.0326923
0.0154958 -0.0153068 -0.0228657
0.00925966 -0.0243775 -0.00793685
0.00907068 -0.0200311 -0.00264562
0.0156847 -0.0196532 -0.0287238
-0.00925966 0.0238105 0.0298577
0.00377945 0.00075589 -0.0134171
-0.0266451 -0.00850377 0.000944863
-0.0257003 -0.00642507 0.020976
-0.00831479 -0.00170075 0.00680301
0.00245664 0 -0.0185193
-0.0396842 -0.00831479 0.048566
-0.0355268 -0.00585815 0.0606602
-0.0179524 -0.00188973 0.0451645
-0.00434637 0.000377945 0.0181414
0.00944863 0.000566918 -0.0402512
-0.0387394 -0.0128501 0.00453534
-0.034582 -0.013606 -0.0279679
0.00699199 -0.00132281 0.00396842
-0.0514005 -0.0187083 -0.0272121
0.00661404 -0.00944863 0.0122832
-0.00132281 -0.00491329 0.0258892
-0.00377945 0.0291018 0.013606
0.0041574 0.0243775 0.000377945
0.0253223 0.0124722 -0.0349599
0.0257003 0.00510226 -0.0445975
0.00491329 -0.034582 -0.000566918
0.00453534 -0.0270231 0.00869274
0.020598 -0.0179524 -0.0336371
0.0120942 -0.0249444 -0.0313695
0.0145509 -0.0192752 -0.0266451
-0.0119053 0.0222988 0.0368497
-0.00718096 0.0262672 0.0238105
-0.0103935 0.0296687 0.0308025
-0.0532903 -0.0113384 0.0604712
-0.0462983 -0.00736993 0.0823921
-0.0149288 -0.000566918 0.0544241
0.00925966 0.00359048 0.00661404
0.0147399 0.00113384 -0.0532903
Vibration 3
-0.0100155 0.00604712 -0.0149288
-0.0100155 0.00907068 -0.0113384
-0.0132281 0.0107714 -0.0115273
-0.0160627 0.00888171 -0.0158737
-0.0162516 0.00585815 -0.020787
-0.0134171 0.00434637 -0.0217318
-0.0145509 0.0075589 -0.020598
-0.013606 -0.000188973 -0.0268341
-0.013984 -0.00434637 -0.0306136
-0.00585815 0.00359048 -0.00642507
-0.00170075 -0.00434637 0.00170075
0.00642507 -0.00907068 0.0143619
0.0107714 -0.00585815 0.0188973
0.00510226 0.00302356 0.0096376
-0.00321253 0.00774788 -0.00302356
0.020598 -0.0122832 0.0328812
-0.013606 0.0153068 -0.00377945
-0.0213539 0.00925966 0.00944863
-0.0219208 0.013984 0.0170075
-0.0147399 0.0249444 0.0113384
-0.00699199 0.0309915 -0.00151178
-0.00661404 0.0260782 -0.00907068
-0.0151178 0.0302356 0.0194642
0.0283459 -0.0117163 0.0408181
-0.0115273 0.00132281 -0.0141729
-0.0115273 -0.020409 -0.00982658
0.0107714 -0.0264562 0.00188973
0.0219208 -0.0062361 0.00529123
0.00699199 0.0107714 -0.0041574
0.0211649 -0.0470542 0.00774788
0.0425188 -0.0466762 0.0175745
0.0532903 -0.0268341 0.0215429
0.0432747 -0.0062361 0.0151178
0.0109604 0.0323143 -0.00396842
-0.0260782 -0.0340151 -0.0162516
-0.00718096 -0.00075589 -0.0109604
-0.00774788 0.0105825 -0.0075589
-0.00170075 -0.00510226 -0.00718096
-0.00472431 -0.00699199 -0.00170075
0.0102045 -0.0154958 0.0211649
0.00736993 0.0062361 0.0124722
-0.00736993 0.0143619 -0.0100155
-0.0272121 0.000566918 0.013606
-0.027779 0.00907068 0.0272121
-0.00132281 0.0394953 -0.00566918
-0.00075589 0.0306136 -0.0187083
-0.0213539 0.0268341 0.0270231
-0.0105825 0.0389284 0.0230547
-0.0134171 0.0292908 0.0147399
0.0376055 -0.0192752 0.0532903
0.020787 -0.020976 0.0359048
0.0328812 0.00434637 0.0398732
0.0128501 -0.0627389 0.00453534
0.0510226 -0.0627389 0.0222988
0.0699199 -0.0272121 0.0292908
0.0519675 0.00944863 0.0175745
-0.00151178 0.0421409 -0.0111494
Vibration 4
-0.00245664 -0.00359048 0.0126612
-0.00245664 -0.00226767 0.0185193
-0.00264562 -0.00188973 0.0117163
-0.00566918 -0.00283459 0.00510226
-0.00529123 -0.00396842 0.00529123
-0.00434637 -0.00472431 0.00736993
-0.00491329 -0.00359048 0.00283459
-0.00434637 -0.00661404 0.0041574
-0.00453534 -0.00944863 0.00170075
-0.00113384 -0.00453534 0.00793685
0.00736993 -0.00302356 0.00831479
0.00642507 -0.00245664 0
-0.00340151 -0.00340151 -0.00888171
-0.0109604 -0.00548021 -0.00869274
-0.0096376 -0.00604712 -0.000188973
-0.0041574 -0.0020787 -0.0173855
-0.00302356 0.00396842 0.00736993
-0.0041574 0.0646286 -0.0610381
-0.00453534 0.0763449 -0.069164
-0.00188973 0.0245664 -0.00699199
0.000377945 -0.0385504 0.0629279
0.000566918 -0.047999 0.0695419
-0.0020787 0.0377945 -0.0170075
-0.0168186 -0.000944863 -0.0296687
-0.00283459 -0.00302356 0.00226767
-0.00132281 -0.00510226 0.00264562
0.00699199 -0.00812582 0.000377945
0.0100155 -0.0041574 0.000188973
0.00377945 0.000377945 0.0020787
0.0117163 -0.013606 -0.00151178
0.0192752 -0.0147399 -0.00340151
0.0221098 -0.0105825 -0.00321253
0.0177634 -0.00529123 -0.00151178
0.00491329 0.00699199 0.00283459
-0.00585815 -0.0075589 0.00302356
0.000944863 0.00359048 0.00245664
-0.00302356 -0.00226767 0.0270231
0.00377945 0.00491329 0.0020787
0.0143619 -0.0020787 0.0149288
0.0128501 -0.00113384 0
-0.0179524 -0.00661404 -0.0151178
-0.0158737 -0.00774788 0
-0.00585815 0.102801 -0.107336
-0.00642507 0.125478 -0.123966
0.0020787 -0.0797464 0.111494
0.00359048 -0.0969429 0.121698
-0.00453534 0.0512116 -0.0309915
-0.0120942 0.0279679 -0.0232436
0.0103935 0.0472432 -0.00680301
-0.0164406 0.000944863 -0.0359048
-0.0141729 0.0020787 -0.0376055
-0.0287238 -0.00510226 -0.0245664
0.00925966 -0.0168186 -0.00151178
0.0230547 -0.0188973 -0.00472431
0.0279679 -0.0115273 -0.00453534
0.0200311 -0.0020787 -0.00151178
-0.000188973 0.00982658 0.00377945
Vibration 5
-0.00226767 0.00151178 0.00340151
-0.00283459 -0.000566918 -0.00075589
-0.00151178 -0.00113384 0.00377945
-0.00075589 -0.00075589 0.00812582
-0.00113384 0.000944863 0.00982658
-0.00188973 0.00151178 0.0120942
0.00264562 0.00188973 0.00377945
-0.00226767 -0.00113384 0.0222988
-0.00302356 -0.00680301 0.0308025
-0.00340151 0.00170075 -0.00302356
-0.0500777 0.0351489 -0.0434637
-0.0487549 0.034582 -0.0491329
0.00151178 0.000188973 -0.013606
0.0476211 -0.0321253 0.0253223
0.0438416 -0.0298577 0.0298577
-0.000944863 0.00226767 -0.0226767
-0.00151178 -0.00340151 0.00245664
0.00132281 0.000566918 -0.00434637
0.00151178 -0.00283459 -0.00453534
-0.000944863 -0.0105825 0.0020787
-0.00340151 -0.0143619 0.00831479
-0.00359048 -0.0105825 0.00850377
-0.00075589 -0.0151178 0.00264562
0.0536682 -0.0353379 0.0185193
-0.00340151 0.00491329 0.00075589
-0.0192752 0.00907068 0.00736993
-0.00718096 0.00472431 0.0041574
0.0075589 0.00585815 -0.0100155
0.00510226 0.00944863 -0.013795
-0.00907068 0.000944863 0.0122832
0.00396842 -0.00188973 0.00566918
0.0185193 -0.00075589 -0.00869274
0.020598 0.00321253 -0.0170075
0.0109604 0.0162516 -0.0279679
-0.0326923 0.00888171 0.0175745
-0.020409 0.0213539 -0.0122832
-0.00434637 -0.00170075 -0.00831479
-0.0262672 0.0260782 -0.0160627
-0.0874943 0.0616051 -0.0693529
-0.0856046 0.0599043 -0.0799354
0.0854156 -0.0585815 0.0515895
0.0786126 -0.0534792 0.0585815
0.00340151 0.00642507 -0.00925966
0.00340151 0.000377945 -0.0096376
-0.00529123 -0.020409 0.0132281
-0.00529123 -0.013606 0.0130391
0.00132281 -0.0124722 -0.00170075
0.000188973 -0.0221098 0.00170075
-0.00396842 -0.0143619 0.00831479
0.0402512 -0.0255113 0.00340151
0.0491329 -0.0394953 0.0871164
0.107714 -0.0657625 -0.00831479
-0.020409 0 0.0234326
0.00283459 -0.00491329 0.0119053
0.0285349 -0.00283459 -0.013795
0.0321253 0.00396842 -0.0281569
0.00699199 0.0185193 -0.0272121
Vibration 6
-0.000377945 0.00472431 -0.020598
-0.000566918 0.00302356 -0.0196532
0.000944863 0.00226767 -0.0194642
0.00170075 0.00302356 -0.0234326
0.0020787 0.0041574 -0.0228657
0.00075589 0.00510226 -0.0226767
-0.000566918 0.00396842 -0.013984
0.00075589 0.00661404 -0.0217318
0.00113384 0.0100155 -0.020409
-0.00302356 0.0062361 -0.0134171
-0.0272121 0.0107714 -0.0224877
-0.0294797 0.0119053 -0.0122832
-0.00642507 0.00888171 0.00699199
0.0170075 0.00510226 0.0156847
0.0183303 0.0041574 0.00510226
-0.0107714 0.00982658 0.0160627
0.000566918 0.00075589 -0.00831479
-0.00585815 0.0149288 -0.0192752
-0.00642507 0.0115273 -0.00302356
0.000188973 -0.00680301 0.0245664
0.00718096 -0.020409 0.034582
0.0075589 -0.0162516 0.0179524
-0.000188973 -0.0124722 0.0442196
0.0156847 0.00434637 0.0404401
0.00642507 -0.00132281 -0.00888171
0.0249444 -0.00925966 -0.0164406
0.00661404 -0.00226767 -0.00699199
-0.0119053 -0.00283459 0.0115273
-0.00642507 -0.00793685 0.0124722
0.0062361 0.00340151 -0.0128501
-0.0132281 0.00812582 0.000377945
-0.0315584 0.00736993 0.0190862
-0.0313695 0.00188973 0.0251334
-0.013795 -0.0175745 0.0300466
0.0428968 -0.0102045 -0.0313695
0.0253223 -0.0287238 0.00793685
-0.00226767 0.0020787 -0.0175745
0.0308025 -0.0370386 0.013984
-0.0442196 0.0130391 -0.0368497
-0.048566 0.0151178 -0.0190862
0.034204 0.00283459 0.0300466
0.0364717 0.00170075 0.0109604
-0.0109604 0.0279679 -0.0393063
-0.0120942 0.0226767 -0.0115273
0.0124722 -0.034393 0.0555579
0.0134171 -0.0272121 0.0255113
-0.00604712 -0.00113384 0.034393
0.0143619 -0.0340151 0.0462983
-0.00944863 -0.00736993 0.068786
0.00774788 0.00548021 0.0449755
0.0145509 0.00340151 0.0657625
0.0423299 0.00075589 0.0281569
0.020409 0.00396842 -0.0272121
-0.013984 0.0126612 -0.00396842
-0.0462983 0.0109604 0.0291018
-0.0459203 0.00132281 0.0398732
-0.00774788 -0.020598 0.027779
Vibration 7
-0.0175745 0.0111494 -0.00585815
-0.0173855 0.00699199 -0.00396842
-0.0120942 0.00377945 -0.00226767
-0.00774788 0.0062361 0.00151178
-0.00774788 0.0107714 0.00226767
-0.0126612 0.013606 -0.00264562
-0.00359048 0.0130391 0.00642507
-0.0120942 0.020976 -0.00491329
-0.0111494 0.0294797 -0.00699199
-0.013795 0.00907068 -0.0103935
0.0187083 -0.00075589 0.00510226
0.0400622 -0.0128501 0.00925966
0.027779 -0.0153068 -0.00226767
-0.0111494 -0.00226767 -0.0224877
-0.0317474 0.00982658 -0.0264562
0.0583925 -0.0315584 0.00831479
-0.0119053 -0.00661404 -0.00491329
-0.00188973 -0.00226767 -0.0179524
-0.00132281 -0.0179524 -0.0166296
-0.0105825 -0.0385504 -0.0020787
-0.020409 -0.0417629 0.00925966
-0.020787 -0.0255113 0.0075589
-0.0102045 -0.0582036 0.00226767
0.0599043 -0.0440306 0.00529123
0.000566918 0.0134171 0.00585815
0.0020787 0.0145509 0.00472431
0.000944863 0.0151178 0.00453534
0.000377945 0.0143619 0.00472431
0.000944863 0.013984 0.00510226
0 0.0162516 0.00510226
-0.00170075 0.0164406 0.00604712
-0.00226767 0.0158737 0.00604712
-0.00113384 0.0147399 0.00548021
0.00075589 0.013606 0.00529123
0.00302356 0.0154958 0.00510226
0.0020787 0.0143619 0.00604712
-0.020976 0.00472431 -0.00377945
0.00264562 0.0141729 0.0062361
0.0291018 0.000377945 0.0145509
0.0674632 -0.0213539 0.0222988
-0.0245664 -0.00188973 -0.034204
-0.0606602 0.0185193 -0.0406291
0.00548021 0.0130391 -0.0283459
0.0062361 -0.0145509 -0.0264562
-0.027401 -0.0572587 0.0196532
-0.0279679 -0.0281569 0.0158737
-0.00170075 -0.0502667 -0.0120942
-0.00377945 -0.0842818 0
-0.0249444 -0.0570697 0.0230547
0.0950532 -0.0612271 0.020976
0.0376055 -0.0708647 -0.0170075
0.0519675 -0.0105825 0.0115273
0.000188973 0.0166296 0.00529123
-0.00245664 0.0171965 0.00661404
-0.00340151 0.0160627 0.00661404
-0.00188973 0.0143619 0.00566918
0.000944863 0.0134171 0.00510226
Vibration 8
-0.00604712 -0.00359048 -0.000566918
-0.00604712 -0.00793685 0.0103935
-0.00226767 -0.0102045 0.0143619
0.000944863 -0.00831479 0.0130391
0.000944863 -0.00396842 0.00377945
-0.00245664 -0.00170075 -0.00680301
0.00510226 -0.00188973 0.0041574
-0.00188973 0.00302356 -0.0247554
-0.00075589 0.00907068 -0.0398732
-0.00944863 -0.00188973 -0.00359048
-0.0124722 -0.000188973 -0.00585815
-0.0107714 -0.00113384 -0.00434637
-0.00566918 -0.00396842 -0.000566918
-0.00529123 -0.00396842 -0.000377945
-0.00736993 -0.00264562 -0.00226767
-0.00170075 -0.0062361 0.00245664
-0.00245664 -0.0109604 0.0154958
-0.00245664 -0.00774788 0.0117163
-0.00226767 -0.000188973 0.00283459
-0.00245664 0.00377945 -0.00170075
-0.00264562 -0.00264562 0.00566918
-0.00264562 -0.0103935 0.0145509
-0.00226767 0.027779 -0.0300466
0.0141729 -0.0158737 0.0147399
0.0113384 0.00075589 0.00151178
0.0115273 0.00434637 -0.00075589
0.00529123 0.00661404 0.00075589
0.00434637 0.00321253 -0.000566918
0.00925966 0.000188973 -0.00245664
-0.000377945 0.0117163 0.00529123
-0.00736993 0.0130391 0.00831479
-0.00812582 0.00944863 0.00661404
-0.00245664 0.00453534 0.0020787
0.0100155 -0.00396842 -0.00642507
0.0147399 0.00736993 0.00075589
0.00944863 -0.000377945 -0.000188973
-0.00907068 -0.0096376 0.0145509
0.00812582 -0.00113384 -0.000188973
-0.0153068 0.00151178 -0.00793685
-0.0126612 -0.000188973 -0.00566918
-0.00302356 -0.00510226 0.00113384
-0.00680301 -0.00283459 -0.0020787
-0.00245664 -0.0100155 0.0145509
-0.00226767 0.00396842 -0.00188973
-0.00264562 -0.000188973 0.00302356
-0.00264562 -0.0149288 0.0198421
-0.00359048 -0.198232 0.234326
-0.0495108 0.400244 0.0200311
0.0462983 -0.0810692 -0.389473
0.0198421 -0.0192752 0.0190862
0.00680301 -0.0241885 0.0245664
0.0270231 -0.0109604 0.00925966
0.000188973 0.0145509 0.00680301
-0.0120942 0.0170075 0.0122832
-0.013606 0.0105825 0.00888171
-0.00340151 0.00170075 0.00113384
0.0134171 -0.00566918 -0.00869274
Vibration 9
0.0062361 0.00869274 0.00188973
0.0062361 0.013984 -0.0194642
0.00226767 0.0162516 -0.0294797
-0.00113384 0.0143619 -0.0330702
-0.00113384 0.00907068 -0.0132281
0.00226767 0.00661404 0.0141729
-0.00699199 0.00642507 -0.0171965
0.00132281 0.00188973 0.0582036
-0.000566918 -0.00642507 0.0948642
0.0119053 0.00585815 0.00736993
0.0196532 0.00377945 0.0105825
0.020409 0.00340151 0.00774788
0.0122832 0.00566918 0.00113384
0.00774788 0.00548021 0.000188973
0.00812582 0.00529123 0.00377945
0.0100155 0.00718096 -0.00377945
0.00226767 0.0147399 -0.0266451
0.00075589 0.013795 -0.0243775
0.00075589 -0.00359048 -0.00151178
0.00226767 -0.0200311 0.0190862
0.00396842 -0.0128501 0.00944863
0.0041574 0.00472431 -0.013606
0.0020787 -0.0410071 0.0457314
-0.0145509 0.0192752 -0.0239995
-0.0156847 0.00245664 -0.0132281
-0.0134171 -0.00793685 -0.0103935
-0.00736993 -0.00982658 -0.00661404
-0.00793685 -0.00264562 -0.000944863
-0.013984 0.00226767 -0.00151178
0 -0.0179524 -0.0107714
0.00661404 -0.0179524 -0.00831479
0.00566918 -0.0105825 -0.00151178
-0.00151178 -0.00264562 0.0020787
-0.0158737 0.00793685 0.00736993
-0.0156847 -0.0147399 -0.0175745
-0.0107714 -0.00510226 -0.0075589
0.0100155 0.0158737 -0.0253223
-0.00869274 -0.00699199 -0.00566918
0.0245664 0.00283459 0.0147399
0.0260782 0.00226767 0.0100155
0.00377945 0.00548021 -0.00321253
0.00453534 0.00491329 0.00340151
0 0.0245664 -0.0381725
-0.00075589 -0.00566918 0.00188973
0.00548021 -0.0219208 0.0211649
0.00585815 0.00888171 -0.0194642
0.000377945 -0.169508 0.196532
0.00982658 0.146076 0.0842818
-0.0041574 -0.108092 -0.13247
-0.0190862 0.0230547 -0.0304246
-0.00604712 0.0291018 -0.041385
-0.0357158 0.0143619 -0.0147399
0.00075589 -0.0238105 -0.0158737
0.0126612 -0.0239995 -0.0117163
0.0107714 -0.0107714 0.000377945
-0.00188973 0.00321253 0.00680301
-0.020976 0.0102045 0.0103935
Vibration 10
-0.0128501 -0.00774788 0.0143619
-0.0124722 -0.0109604 0.00718096
-0.00982658 -0.0128501 -0.00226767
-0.00736993 -0.0117163 -0.0156847
-0.00718096 -0.00793685 -0.00680301
-0.0102045 -0.00604712 0.0164406
0.00170075 -0.00321253 -0.0181414
-0.0103935 -0.00359048 0.0438416
-0.0113384 -0.00585815 0.0661404
-0.0122832 -0.00831479 0.0122832
-0.00434637 -0.00491329 0.0102045
0.000377945 -0.00736993 0.00283459
-0.00396842 -0.013984 -0.00264562
-0.0126612 -0.0177634 -0.00132281
-0.0166296 -0.0149288 0.0062361
0.0020787 -0.0162516 -0.0100155
-0.0102045 -0.00907068 0.00226767
-0.0194642 -0.00831479 0.00888171
-0.0202201 0.00529123 0.00888171
-0.0119053 0.0179524 0.00226767
-0.00283459 0.0145509 -0.00075589
-0.00245664 0.000566918 -0.000566918
-0.0122832 0.0349599 0.000377945
-0.00264562 -0.0239995 -0.0175745
0.0294797 0.00907068 -0.0302356
0.0340151 0 -0.0396842
0.0183303 0.00850377 -0.0119053
0.0198421 0.0120942 -0.0103935
0.0325033 0.0117163 -0.0317474
-0.00340151 0.0147399 0.020787
-0.0238105 0.0239995 0.0548021
-0.0213539 0.0268341 0.0538572
0.00113384 0.020976 0.0213539
0.0368497 0.0105825 -0.0445975
0.0408181 -0.00245664 -0.0474321
0.0260782 -0.0113384 -0.0317474
-0.013984 -0.0119053 0.00869274
0.0245664 -0.0245664 -0.0247554
-0.00132281 0 0.0143619
0.00718096 -0.00434637 0.00132281
-0.0160627 -0.0226767 -0.00566918
-0.0234326 -0.0183303 0.00793685
-0.0264562 -0.0173855 0.0130391
-0.0272121 0.00604712 0.0132281
0.00377945 0.0230547 -0.00396842
0.0041574 -0.00170075 -0.00302356
-0.0202201 0.0701088 -0.0359048
-0.0124722 -0.00831479 -0.00774788
-0.00434637 0.054991 0.0462983
0.00396842 -0.0241885 -0.0230547
-0.00566918 -0.02759 -0.020409
-0.00888171 -0.0253223 -0.0149288
-0.00585815 0.0122832 0.0215429
-0.0427078 0.0294797 0.082581
-0.0372276 0.0338261 0.0801244
0.0020787 0.0238105 0.0222988
0.0402512 0.0105825 -0.0529123
Vibration 11
0.00132281 0.0100155 0.0391173
0.000566918 0.0143619 0.0591484
-0.00359048 0.0170075 0.0326923
-0.00642507 0.0147399 0.00472431
-0.00699199 0.0096376 -0.00491329
-0.00302356 0.00718096 0.00548021
-0.0122832 0.00736993 -0.0217318
-0.00340151 -0.00226767 -0.020787
-0.00377945 -0.0120942 -0.0419519
0.00793685 0.0062361 0.0362827
0.00585815 0.0234326 0.0198421
0.00869274 0.0222988 0.00340151
0.0141729 0.0041574 0.00359048
0.0215429 -0.0160627 0.0228657
0.0179524 -0.0134171 0.0391173
0.0126612 0.00699199 -0.0179524
-0.00321253 0.0115273 0.020787
0.0145509 0.0020787 0.0166296
0.0160627 -0.0130391 0.00075589
-0.00170075 -0.0175745 -0.0115273
-0.020409 -0.00736993 -0.00869274
-0.0211649 0.00718096 0.00774788
-0.00075589 -0.0353379 -0.0289128
-0.00566918 0.000944863 -0.0387394
-0.0115273 0.00793685 -0.0217318
0.00264562 -0.00869274 -0.0262672
0.00188973 -0.00774788 -0.0145509
-0.00699199 0.00264562 0.00188973
-0.0103935 0.00736993 -0.00283459
0.00850377 -0.0151178 -0.0179524
0.00491329 -0.0113384 -0.0020787
-0.00548021 -0.000566918 0.0171965
-0.0113384 0.00661404 0.0190862
-0.013795 0.0122832 0.0100155
0.00718096 -0.0175745 -0.041196
0.00453534 -0.0115273 -0.00869274
0.00359048 0.0168186 0.0880612
0.0115273 -0.0190862 -0.00283459
0.000944863 0.0387394 0.0198421
0.00529123 0.0359048 -0.0100155
0.0292908 -0.0330702 0.0251334
0.0221098 -0.0270231 0.0521564
0.0279679 0.00585815 0.0251334
0.0311805 -0.020976 -0.00188973
-0.034393 -0.0105825 -0.0187083
-0.0364717 0.0149288 0.0105825
0.0162516 -0.0391173 -0.034393
-0.0100155 -0.0419519 -0.0340151
-0.00850377 -0.0398732 -0.0323143
-0.0164406 0.013606 -0.0646286
0.00529123 0.013795 -0.0334482
-0.0190862 -0.027779 -0.034771
0.0160627 -0.0238105 -0.0323143
0.0100155 -0.0168186 -0.00434637
-0.00888171 0.00245664 0.0304246
-0.0188973 0.0153068 0.0334482
-0.0166296 0.0156847 0.00529123
Vibration 12
-0.00264562 0.00774788 0.0153068
-0.00170075 -0.00321253 0.0222988
0.00850377 -0.0096376 0.0160627
0.0183303 -0.00340151 -0.00359048
0.0192752 0.0062361 -0.00774788
0.00850377 0.0126612 0.00982658
0.0194642 0.00585815 -0.0247554
0.00982658 0.0360938 0.0268341
0.0124722 0.0642507 0.0400622
-0.0134171 0.0141729 0.00566918
-0.00321253 0.0153068 0.0062361
-0.00510226 0.0168186 -0.0041574
-0.0164406 0.0158737 -0.0141729
-0.034582 0.0187083 -0.020787
-0.0328812 0.0181414 -0.0109604
-0.0100155 0.0134171 -0.020598
0.00888171 -0.0156847 0.0226767
0.00831479 -0.0175745 0.0251334
0.00831479 -0.00548021 0.0126612
0.00907068 0.00850377 -0.00264562
0.00944863 0.00188973 0.00453534
0.00925966 -0.0105825 0.0175745
0.00925966 0.0323143 -0.0285349
0.0462983 -0.0296687 0.0200311
-0.00604712 -0.00283459 -0.0158737
-0.00925966 -0.0143619 -0.00925966
-0.00831479 -0.0151178 -0.00680301
-0.013984 -0.0103935 0.0020787
-0.0153068 -0.00982658 0.00132281
0.00340151 -0.0217318 -0.020598
0.00831479 -0.0228657 -0.0238105
0.000944863 -0.0175745 -0.0117163
-0.0107714 -0.0111494 0.00132281
-0.020598 -0.0143619 0.0141729
-0.00888171 -0.020598 -0.0175745
-0.00831479 -0.0211649 -0.00944863
-0.0096376 -0.0075589 0.0308025
-0.0109604 -0.0221098 -0.00869274
0.00812582 0.0149288 0.0160627
0.00396842 0.0173855 -0.00283459
-0.0498888 0.0217318 -0.0336371
-0.0459203 0.0196532 -0.0149288
0.00774788 -0.0255113 0.0340151
0.00774788 -0.00491329 0.0124722
0.00982658 0.00812582 -0.00226767
0.0096376 -0.0143619 0.0215429
0.00831479 0.0555579 -0.054991
-0.0100155 0.0134171 -0.0402512
0.0294797 0.0476211 -0.0107714
0.0729434 -0.0425188 0.0317474
0.0168186 -0.0640617 0.0559359
0.0901399 -0.0130391 0.00151178
0.00925966 -0.0257003 -0.0298577
0.0185193 -0.0281569 -0.0359048
0.00434637 -0.0183303 -0.0134171
-0.0156847 -0.00718096 0.00944863
-0.0181414 -0.0162516 0.0158737
Vibration 13
-0.0158737 0.00642507 -0.0153068
-0.0149288 -0.00699199 -0.0160627
-0.00264562 -0.0151178 -0.00510226
0.00888171 -0.00793685 -0.00529123
0.0100155 0.00453534 -0.00869274
-0.00340151 0.0117163 -0.00869274
0.0166296 0.00793685 -0.00850377
-0.00151178 0.0417629 0.00302356
0.00264562 0.0822031 0.0103935
-0.0153068 0.00585815 -0.0122832
-0.0291018 0.0143619 -0.0234326
-0.00453534 0.000377945 -0.00566918
0.0313695 -0.0202201 0.020598
0.0417629 -0.0262672 0.0281569
0.0181414 -0.0124722 0.0117163
0.0659514 -0.0404401 0.0461093
-0.00283459 -0.0234326 0.00869274
-0.00982658 -0.0228657 0.013984
-0.0103935 -0.00888171 0.0105825
-0.00377945 0.00434637 0.00170075
0.00340151 -0.00699199 0.00925966
0.00359048 -0.0211649 0.0126612
-0.00396842 0.034771 -0.0179524
-0.054991 0.0294797 -0.0495108
0.00321253 0.000566918 -0.00132281
-0.00453534 -0.00075589 0.00548021
-0.00453534 -0.00113384 0.00396842
-0.00491329 -0.00170075 0.00359048
-0.00359048 -0.00340151 0.00377945
-0.000377945 -0.00226767 -0.00245664
0.00340151 -0.00396842 -0.00944863
0.00264562 -0.00453534 -0.00888171
-0.0020787 -0.00359048 -0.0020787
-0.00604712 -0.00888171 0.0075589
-0.00585815 -0.00132281 0.00566918
-0.00491329 -0.00566918 -0.0020787
-0.0247554 -0.0130391 -0.0222988
-0.0100155 -0.00377945 -0.00340151
-0.0585815 0.0317474 -0.0445975
-0.0134171 0.00529123 -0.0120942
0.0716206 -0.0444086 0.0496998
0.0281569 -0.0179524 0.0187083
-0.0149288 -0.0304246 0.0179524
-0.0160627 -0.00604712 0.0115273
0.00869274 -0.00264562 0.00944863
0.00925966 -0.0279679 0.0160627
-0.0111494 0.0531013 -0.034771
-0.020976 0.0287238 -0.0264562
0.0202201 0.048566 -0.00907068
-0.0633058 0.0357158 -0.0591484
-0.0217318 0.0670853 -0.154769
-0.162327 0.0340151 -0.000566918
0.000377945 -0.00151178 -0.00302356
0.0075589 -0.00510226 -0.0154958
0.00566918 -0.00604712 -0.0141729
-0.00226767 -0.0041574 -0.00226767
-0.00226767 -0.0117163 0.00888171
Vibration 14
-0.00680301 -0.00321253 0.0338261
-0.00491329 -0.0062361 0.0200311
-0.00113384 -0.00944863 -0.0217318
0.00188973 -0.00718096 -0.0309915
0.00359048 -0.00396842 -0.00604712
-0.0020787 -0.00188973 0.0115273
0.00793685 -0.0020787 0.00377945
0.000188973 0.0264562 -0.0130391
0.0062361 0.0752111 -0.0404401
-0.00566918 -0.00453534 0.0430858
0.00226767 0.0041574 0.0359048
0.00226767 0.00548021 0.0164406
-0.00661404 -0.00585815 0.0062361
-0.00642507 -0.020976 0.0194642
-0.0075589 -0.0185193 0.0368497
-0.0153068 0.00226767 -0.0281569
-0.00132281 0.00283459 -0.0383614
-0.0149288 0.0113384 -0.0364717
-0.0164406 0.0158737 -0.0170075
-0.00396842 0.0120942 -0.000188973
0.0100155 0.0215429 -0.0219208
0.0102045 0.0156847 -0.0402512
-0.00491329 -0.00566918 0.0521564
0.0041574 -0.0359048 -0.0232436
0.0119053 -0.00774788 0.00907068
0.00472431 -0.00170075 0.0120942
-0.00132281 0.000188973 0.0115273
0.0041574 -0.00680301 0.00075589
0.00661404 -0.0102045 0.00434637
-0.00831479 0.00661404 0.0166296
-0.0041574 0.00321253 0.00245664
0.00736993 -0.0062361 -0.0166296
0.0103935 -0.0113384 -0.0164406
0.00718096 -0.0187083 -0.00170075
0.0062361 0.00302356 0.0170075
0.00132281 -0.00793685 0.00321253
-0.00642507 -0.00661404 0.0360938
-0.00434637 -0.00434637 0.000188973
0.00869274 0.0124722 0.0434637
0.00680301 0.0149288 0.00850377
-0.00774788 -0.0332592 0.0151178
-0.0119053 -0.0281569 0.0444086
-0.0249444 0.0107714 -0.0457314
-0.02759 0.0183303 -0.0111494
0.020598 0.0291018 -0.0200311
0.0202201 0.0187083 -0.0508336
-0.0194642 -0.0217318 0.0795575
0.0334482 0.00566918 0.0708647
-0.0292908 -0.0164406 0.0515895
-0.00396842 -0.0215429 -0.0570697
0.00453534 -0.0349599 0.0230547
0.0247554 -0.0765339 -0.0357158
-0.0153068 0.013984 0.0292908
-0.00869274 0.00774788 0.00529123
0.0130391 -0.00982658 -0.0309915
0.0177634 -0.0183303 -0.0292908
0.013984 -0.0236216 -0.00151178
Vibration 15
-0.00151178 0.0075589 0.000944863
-0.00226767 0.00642507 0.0109604
-0.00264562 0.00661404 -0.00132281
-0.0020787 0.00642507 -0.0228657
-0.00245664 0.0062361 -0.0224877
-0.00245664 0.00699199 -0.0119053
-0.00396842 0.00566918 -0.0175745
-0.00377945 -0.0075589 -0.00359048
-0.00680301 -0.0334482 0.00831479
-0.00245664 0.00888171 0.00170075
-0.00132281 0.0117163 -0.000377945
0.000944863 0.0109604 -0.00151178
0.00264562 0.00850377 -0.000566918
-0.0020787 0.00812582 -0.00132281
-0.00340151 0.00888171 0.000566918
0.0105825 0.00434637 0.00226767
-0.00302356 0.000566918 0.00793685
-0.000944863 -0.00453534 0.0117163
-0.000566918 -0.00736993 0.00925966
-0.00359048 -0.00396842 0.00245664
-0.0062361 -0.00680301 0.00774788
-0.0062361 -0.00434637 0.0103935
-0.00340151 0.00529123 -0.0158737
0.00510226 0.00529123 -0.00321253
0.00472431 0 -0.0126612
0.0149288 -0.00359048 -0.00793685
-0.0115273 0.00661404 0.0188973
0.0175745 -0.00699199 -0.0192752
-0.00132281 -0.00585815 0.0103935
-0.05518 0.0272121 0.0746442
-0.0359048 0.0187083 0.0438416
0.0355268 -0.0124722 -0.0546131
0.0580146 -0.0245664 -0.0810692
-0.0213539 -0.00321253 0.0754001
0.0287238 -0.00982658 -0.0283459
0.00661404 -0.0255113 -0.00604712
-0.00264562 0.00680301 0.027401
-0.00226767 -0.02759 -0.00604712
-0.00188973 0.0145509 -0.000377945