[Molden Format]
[FREQ]
-1681.3
6.4
17.3
26.9
28.4
29.9
34.7
40.5
47.0
52.7
62.5
66.3
75.3
86.3
90.4
97.0
109.7
112.3
127.0
129.9
135.3
148.9
155.1
172.2
180.8
203.5
213.5
225.5
253.5
267.4
288.6
293.4
307.4
329.8
342.6
348.3
353.1
356.5
365.3
366.0
397.7
466.6
474.3
491.8
494.5
500.9
523.0
543.7
560.5
564.0
570.7
604.4
613.3
615.9
618.6
635.2
637.7
651.2
653.1
673.6
706.1
709.4
716.0
720.6
745.1
766.0
796.3
815.6
824.3
835.5
848.8
882.1
882.5
898.2
901.2
914.1
969.2
974.2
994.1
1001.7
1009.1
1009.7
1017.8
1018.7
1021.9
1033.7
1034.5
1066.9
1070.4
1079.0
1082.3
1086.5
1115.6
1125.5
1134.9
1177.4
1181.6
1183.9
1195.2
1213.7
1231.4
1246.3
1249.2
1260.1
1263.6
1270.6
1279.1
1285.9
1295.3
1301.6
1302.3
1321.5
1332.2
1341.8
1349.4
1352.4
1353.8
1363.9
1364.7
1380.0
1393.5
1420.5
1428.0
1464.9
1498.6
1501.5
1510.9
1522.4
1530.1
1553.0
1595.1
1600.4
1640.7
1642.7
1671.6
1692.8
1696.9
1704.7
1706.6
1720.5
1793.9
1944.2
2137.2
2258.3
2455.2
2635.5
2651.4
2653.3
2677.4
2742.9
2744.5
2744.8
2745.6
2746.8
2748.7
2750.9
2751.8
2758.1
2758.3
2763.9
2764.0
2768.8
2772.4
2774.9
3095.3
       
[FR-COORD]
C -3.42324 -2.62766 -1.56507
C -0.787638 -2.62766 -1.56507
C 0.5261 -0.326734 -1.56507
N -0.684459 1.92771 -1.5628
C -3.24145 1.93924 -1.58775
C -4.70995 -0.300088 -1.58529
N -4.35525 4.28949 -1.59247
C -7.37768 -0.175745 -1.63801
N -9.5622 -0.061794 -1.68412
C -4.79707 -5.02705 -1.55487
C -4.32917 -6.80264 -3.46746
C -5.614 -9.08032 -3.4941
C -7.37617 -9.5811 -1.56715
C -7.8503 -7.84293 0.360182
C -6.55017 -5.55731 0.344497
O -8.48846 -11.8739 -1.81451
C 3.30097 -0.24094 -1.55014
C 4.64684 -1.69225 0.194831
C 7.27148 -1.54958 0.265884
C 8.56651 0.0353379 -1.40766
C 7.20741 1.44299 -3.18986
C 4.58788 1.31015 -3.26053
C 11.3559 0.311049 -1.24911
C -10.384 -12.5293 -0.0258892
C -5.2421 6.35779 -1.6486
C 2.46477 5.84549 0.133415
C 2.6133 5.10736 2.56719
C 5.01892 4.99568 3.866
C 7.31116 6.45474 2.6373
C 0.347521 4.45975 3.93762
C 0.411393 4.13907 6.47552
C 2.73198 4.53572 7.84954
C 4.92557 4.99001 6.6199
O 8.91365 4.79027 1.93508
O 2.35743 6.55489 -1.91184
O 7.307 8.72241 2.41979
H 0.2519 -4.40684 -1.56394
H 6.00385 2.46874 3.33839
H -2.96026 -6.3731 -4.9507
H -5.29634 -10.4774 -4.96771
H -9.20901 -8.23316 1.84494
H -6.90638 -4.17497 1.83436
H 3.64434 -2.91245 1.51707
H 8.32046 -2.68095 1.62498
H 8.21369 2.67453 -4.49849
H 3.52604 2.41961 -4.63871
H 11.8342 2.11744 -0.287805
H 12.2579 0.383425 -3.1171
H 12.2764 -1.20489 -0.177823
H -10.9803 -14.4041 -0.692774
H -11.9665 -11.1985 -0.10299
H -9.58847 -12.6593 1.8782
H -1.40085 4.2619 2.86804
H -1.26838 3.63829 7.54133
H 2.64014 4.49074 9.90708
H 6.68661 5.3621 7.61465
H 7.55853 2.57456 2.61765

[FR-NORM-COORD]
Vibration 1
-0.000377945 0.000566918 0
0.00075589 -0.000377945 0
-0.00226767 0.00075589 0.000377945
0 -0.0020787 -0.00113384
0.000566918 0.00151178 0.000566918
0 -0.000944863 0
-0.000566918 -0.00113384 -0.000566918
0 0 0
0 0 0
0 0 0
0 0 0
0 0 0
0 0.000188973 0
0 0 0
0 0 0
0 -0.000188973 0
0.00075589 -0.000377945 0
0 0.00113384 0.000566918
0.00075589 0.00359048 0.00226767
-0.00170075 -0.000188973 0.000188973
0.00113384 0 0.00113384
-0.000377945 -0.00075589 -0.000188973
0 0.00170075 0.00170075
0 0 0
0.00075589 0.000188973 0.000377945
-0.00396842 -0.000188973 0.0162516
-0.0130391 0.0126612 -0.0249444
0.0491329 -0.0835259 -0.0249444
-0.0684081 0.0394953 0.0323143
-0.00302356 -0.00075589 0.0062361
-0.00566918 -0.000566918 -0.00718096
0.0111494 0.00340151 0.00170075
-0.00529123 0.00888171 0.0215429
-0.00170075 -0.0627389 0.00226767
0.000377945 0.00075589 -0.00434637
0.0153068 -0.000566918 -0.00566918
-0.00132281 0.000377945 0.000188973
-0.182737 0.578634 0.076156
-0.00075589 0 0
-0.000188973 0.000188973 0.000188973
0 0 0
0 0.000377945 0.000188973
-0.00151178 -0.00075589 0.000377945
-0.000944863 -0.00453534 -0.00377945
-0.00132281 -0.0020787 -0.00340151
-0.00321253 0.00661404 0.00226767
0.0158737 -0.0062361 -0.0113384
-0.000944863 -0.00585815 -0.00188973
0.00075589 -0.00529123 -0.00585815
0 0.000188973 0.000188973
0 0.000188973 0
0 0.000188973 0
0.00264562 0.00075589 0.000377945
0.00453534 -0.00132281 0.000377945
-0.00321253 -0.00264562 -0.0041574
-0.0100155 0.0130391 0.0100155
0.430858 0.622098 -0.242074
Vibration 2
0.00548021 0.00793685 -0.00718096
0.00548021 0.00812582 -0.0105825
0.00566918 0.00812582 -0.020409
0.00510226 0.00812582 -0.027401
0.00510226 0.00774788 -0.0258892
0.00529123 0.00774788 -0.0154958
0.00510226 0.00774788 -0.034393
0.00529123 0.00718096 -0.013606
0.00510226 0.00680301 -0.0122832
0.00585815 0.00793685 0.00604712
0.00283459 -0.00113384 0.013606
0.00321253 -0.00151178 0.0268341
0.00661404 0.00736993 0.0323143
0.00944863 0.0166296 0.0247554
0.00907068 0.0168186 0.0115273
0.00680301 0.00585815 0.0453534
0.00548021 0.00925966 -0.0221098
0.00774788 0.000377945 -0.0311805
0.0075589 0.00283459 -0.0309915
0.00548021 0.0145509 -0.0217318
0.00340151 0.0228657 -0.013795
0.00359048 0.0200311 -0.013795
0.00491329 0.0183303 -0.0192752
0.0103935 0.013795 0.0521564
0.00548021 0.00774788 -0.0425188
0.000377945 0.00529123 0.0062361
-0.0105825 -0.0122832 0.00151178
-0.0158737 -0.0268341 0.0102045
-0.00888171 -0.0198421 0.0313695
-0.0175745 -0.0168186 -0.0120942
-0.0281569 -0.0376055 -0.0145509
-0.0325033 -0.05518 -0.00245664
-0.0266451 -0.0500777 0.00982658
-0.00888171 -0.0162516 0.0232436
0.00907068 0.0188973 0.0105825
-0.00472431 -0.0179524 0.0510226
0.00529123 0.00793685 -0.00566918
-0.0175745 -0.0239995 -0.00718096
0.000188973 -0.00812582 0.00925966
0.000944863 -0.00869274 0.0330702
0.0119053 0.0236216 0.0287238
0.0113384 0.0238105 0.00548021
0.00982658 -0.00831479 -0.0377945
0.00944863 -0.00396842 -0.0381725
0.00151178 0.0311805 -0.00718096
0.00188973 0.0264562 -0.0075589
0.00075589 0.0100155 -0.00151178
0.00510226 0.0381725 -0.0183303
0.00774788 0.0100155 -0.0334482
0.0102045 0.0102045 0.0627389
0.00944863 0.0126612 0.048188
0.013984 0.0239995 0.0514005
-0.0141729 -0.00302356 -0.0202201
-0.0336371 -0.0417629 -0.0249444
-0.0402512 -0.0725655 -0.00321253
-0.0294797 -0.0629279 0.0196532
-0.0147399 -0.0202201 -0.000377945
Vibration 3
0 -0.00113384 -0.00188973
0 -0.00283459 0.00680301
0.00132281 -0.00377945 0.00510226
0.00264562 -0.00302356 -0.00264562
0.00264562 -0.00113384 -0.0113384
0.00151178 -0.000377945 -0.0130391
0.00453534 -0.000566918 -0.0183303
0.00170075 0.00151178 -0.0260782
0.0020787 0.00321253 -0.0377945
-0.00226767 0.000188973 0.00132281
0.00566918 -0.00925966 0.0122832
0.0020787 -0.00736993 0.0151178
-0.0100155 0.00434637 0.00718096
-0.0177634 0.013795 -0.00321253
-0.013795 0.0113384 -0.00585815
-0.0132281 0.00548021 0.0107714
0.00151178 -0.00396842 0.0109604
-0.00132281 -0.00434637 0.0128501
-0.00151178 -0.00434637 0.0171965
0.00113384 -0.00377945 0.0198421
0.0041574 -0.00264562 0.0187083
0.00434637 -0.00264562 0.0141729
0.00113384 -0.00340151 0.0234326
-0.0260782 0.0179524 0.00170075
0.00680301 0.000377945 -0.0238105
-0.0175745 -0.00075589 0.0096376
0.00566918 -0.0170075 0.00340151
0.0149288 0.0075589 -0.0115273
-0.0126612 0.0476211 -0.0156847
0.0234326 -0.0610381 0.0117163
0.0434637 -0.0812582 0.00869274
0.0455424 -0.0570697 -0.00170075
0.0313695 -0.0141729 -0.0109604
0.00472431 0.0742662 -0.0393063
-0.0362827 0.0132281 0.0154958
-0.0445975 0.0493218 0.0020787
-0.00113384 -0.00359048 0.0147399
0.0461093 0.0245664 -0.0349599
0.0149288 -0.0183303 0.0179524
0.00831479 -0.0145509 0.0234326
-0.0268341 0.0226767 -0.00907068
-0.0196532 0.0183303 -0.013795
-0.00340151 -0.00434637 0.0111494
-0.00396842 -0.00453534 0.0188973
0.00642507 -0.00113384 0.0213539
0.00642507 -0.00151178 0.0134171
0.00188973 0.0096376 -0.00226767
0.00472431 -0.0313695 0.0238105
-0.00245664 0.0105825 0.0462983
-0.0260782 0.0162516 0.0062361
-0.0224877 0.0211649 -0.0143619
-0.0383614 0.0247554 0.00736993
0.0196532 -0.0774788 0.020787
0.0572587 -0.115273 0.0145509
0.0582036 -0.0746442 -0.00151178
0.0315584 0.00529123 -0.0187083
0.0400622 0.0512116 -0.0440306
Vibration 4
-0.0141729 0.0041574 0.00151178
-0.013795 0.00736993 0.0111494
-0.0154958 0.00812582 0.00850377
-0.0170075 0.00736993 0.00680301
-0.0168186 0.00491329 0.000188973
-0.0154958 0.00359048 -0.00812582
-0.0187083 0.00396842 0.00075589
-0.0151178 0.00396842 -0.0287238
-0.0145509 0.00529123 -0.047999
-0.00793685 0.000944863 0.00151178
0.0430858 -0.0239995 0.0366607
0.0561249 -0.0311805 0.0400622
0.0153068 -0.0134171 0.0075589
-0.0383614 0.0122832 -0.0289128
-0.0491329 0.0183303 -0.0313695
0.0351489 -0.0239995 0.0164406
-0.0156847 0.00888171 0.00377945
-0.0111494 0.0117163 0.00264562
-0.0107714 0.00907068 -0.00718096
-0.0149288 0.00377945 -0.0154958
-0.0196532 0.00188973 -0.0132281
-0.0200311 0.00434637 -0.00377945
-0.013984 -0.000188973 -0.0266451
-0.00359048 -0.00793685 -0.0187083
-0.0181414 0.00434637 0.00321253
0.0173855 0.00302356 0.00888171
0.0171965 0.0020787 0.00831479
0.0168186 -0.00264562 0.00869274
0.0211649 -0.0105825 0.00718096
0.0158737 0.00604712 0.00831479
0.0149288 0.00812582 0.00850377
0.0153068 0.0062361 0.00869274
0.0164406 0.000944863 0.00869274
0.0170075 -0.0158737 0.0103935
0.0162516 0.00264562 0.00869274
0.027401 -0.0107714 0.00377945
-0.0117163 0.00869274 0.0194642
0.0102045 -0.00604712 0.0120942
0.0735103 -0.0379835 0.0606602
0.0971319 -0.0506447 0.0674632
-0.0708647 0.0268341 -0.0546131
-0.089573 0.0366607 -0.0578256
-0.00774788 0.0158737 0.00888171
-0.00699199 0.0107714 -0.00869274
-0.0230547 -0.0020787 -0.0196532
-0.0238105 0.00245664 -0.00245664
-0.00774788 -0.0041574 -0.0221098
-0.0215429 0.00548021 -0.0300466
-0.0113384 -0.00491329 -0.0357158
0.0253223 -0.0226767 -0.00264562
-0.0105825 -0.0196532 -0.0786126
-0.0489439 0.0283459 0.00264562
0.0160627 0.00699199 0.0075589
0.0141729 0.0111494 0.00869274
0.0147399 0.00907068 0.00869274
0.0168186 -0.000944863 0.00850377
0.0107714 -0.0111494 0.0128501
Vibration 5
-0.0194642 0.0154958 -0.0196532
-0.0196532 0.0122832 -0.0164406
-0.0170075 0.0105825 -0.00642507
-0.013795 0.0120942 -0.00377945
-0.013984 0.0149288 -0.00907068
-0.0168186 0.0166296 -0.0160627
-0.0109604 0.0164406 -0.00585815
-0.0168186 0.0181414 -0.0175745
-0.0166296 0.0185193 -0.0187083
-0.0175745 0.0143619 -0.020976
-0.0302356 0.0239995 -0.0330702
-0.013795 0.0147399 -0.0228657
0.0166296 -0.00453534 0.000188973
0.0234326 -0.0103935 0.00699199
0.00529123 0 -0.0041574
0.0379835 -0.0164406 0.013606
-0.0168186 0.00302356 0.00377945
-0.0292908 -0.00170075 0.0096376
-0.0289128 -0.0149288 0.0173855
-0.0160627 -0.0232436 0.0194642
-0.00377945 -0.0168186 0.0153068
-0.00434637 -0.00359048 0.00736993
-0.0147399 -0.0391173 0.0258892
0.0840928 -0.0470542 0.0510226
-0.00718096 0.0181414 -0.00226767
0.00944863 0.00396842 0.00226767
0.0113384 -0.000188973 0.00075589
0.0119053 -0.000377945 -0.000188973
0.0115273 0.000566918 0
0.0124722 -0.00472431 0.000566918
0.013795 -0.00812582 0.000188973
0.013795 -0.00680301 0
0.0128501 -0.00283459 -0.000188973
0.0113384 0.00132281 -0.00170075
0.0075589 0.00642507 0.00321253
0.0109604 0.00075589 0.00151178
-0.0219208 0.0107714 -0.0202201
0.0119053 -0.000188973 -0.0020787
-0.0517785 0.0381725 -0.0487549
-0.0224877 0.020976 -0.0306136
0.0427078 -0.0230547 0.0213539
0.0107714 -0.00453534 0.00113384
-0.0394953 0.00453534 0.00774788
-0.0387394 -0.0190862 0.0215429
0.00642507 -0.0222988 0.0177634
0.00529123 0.000944863 0.00377945
-0.00566918 -0.0357158 0.0149288
-0.00944863 -0.0572587 0.02759
-0.0270231 -0.0377945 0.0379835
0.100722 -0.0565028 0.062172
0.0614161 -0.0721875 0.0823921
0.123399 -0.0349599 0.0353379
0.0124722 -0.00548021 0.00075589
0.0149288 -0.0117163 0
0.0143619 -0.00888171 -0.000188973
0.0126612 -0.00170075 -0.000377945
0.0117163 0.000566918 -0.0020787
Vibration 6
-0.00585815 -0.0111494 -0.00529123
-0.00604712 -0.00869274 -0.0075589
-0.00925966 -0.00680301 -0.0107714
-0.0115273 -0.00831479 -0.0122832
-0.0117163 -0.0107714 -0.00982658
-0.00869274 -0.0126612 -0.00604712
-0.013795 -0.0120942 -0.0107714
-0.00907068 -0.0171965 -0.00264562
-0.00944863 -0.0215429 0.000188973
-0.00642507 -0.0111494 -0.0020787
-0.0249444 -0.00434637 -0.0124722
-0.0311805 -0.000944863 -0.0120942
-0.0181414 -0.0041574 -0.00113384
0.00226767 -0.0117163 0.0107714
0.00774788 -0.0149288 0.0102045
-0.0279679 0.00075589 -0.00340151
-0.00925966 0 -0.0109604
-0.00642507 0.0287238 0.0103935
-0.00718096 0.041574 0.0134171
-0.0111494 0.0251334 -0.00548021
-0.013984 -0.00548021 -0.0272121
-0.0134171 -0.0177634 -0.0298577
-0.0128501 0.0394953 -0.00283459
-0.0177634 -0.000377945 0.00680301
-0.0130391 -0.0117163 -0.0103935
0.0459203 -0.0168186 -0.00321253
0.0332592 -0.0075589 0.000188973
0.0243775 0.0117163 0.0185193
0.0236216 0.0251334 0.0330702
0.0270231 -0.0162516 -0.0141729
0.0103935 -0.0100155 -0.0130391
-0.00170075 0.00566918 0.00283459
0.00434637 0.0160627 0.0177634
0.0381725 0.034393 0.0438416
0.0563138 -0.0287238 -0.00793685
0.0120942 0.0251334 0.0334482
-0.00377945 -0.00736993 -0.00642507
0.0462983 0.0171965 0.0298577
-0.034771 -0.00170075 -0.020787
-0.0461093 0.00453534 -0.020598
0.0134171 -0.0149288 0.0200311
0.0228657 -0.0202201 0.0185193
-0.00377945 0.0417629 0.0245664
-0.00453534 0.0634948 0.0296687
-0.0171965 -0.020409 -0.0434637
-0.0158737 -0.0404401 -0.0461093
-0.0219208 0.0444086 -0.00736993
-0.0102045 0.0383614 -0.00151178
-0.00680301 0.0472432 0.00283459
-0.0309915 0.00566918 0.00132281
-0.0126612 0.00680301 0.0255113
-0.00434637 -0.013984 0.000377945
0.0355268 -0.027779 -0.0262672
0.00529123 -0.0166296 -0.0241885
-0.0162516 0.00907068 0.00226767
-0.00491329 0.0283459 0.0298577
0.0496998 0.0270231 0.0385504
Vibration 7
-0.00548021 -0.00472431 0.0183303
-0.00548021 -0.00340151 0.0164406
-0.00566918 -0.00302356 0.0096376
-0.00585815 -0.00321253 0
-0.00585815 -0.00472431 0.00548021
-0.00585815 -0.00491329 0.0187083
-0.00699199 -0.00510226 -0.00377945
-0.00604712 -0.00510226 0.0326923
-0.00642507 -0.00510226 0.0464873
-0.00302356 -0.0062361 0.013606
0.00736993 -0.00302356 0.0126612
0.0100155 -0.0041574 0.00283459
0.00151178 -0.00907068 -0.00604712
-0.00793685 -0.0132281 -0.00472431
-0.0100155 -0.0119053 0.00529123
0.00434637 -0.00944863 -0.0160627
-0.00566918 -0.00548021 0.0103935
-0.00774788 -0.0170075 0.00283459
-0.00736993 -0.0241885 0.00151178
-0.00472431 -0.0194642 0.00812582
-0.00264562 -0.0062361 0.0170075
-0.00302356 0.000377945 0.0181414
-0.00377945 -0.0272121 0.00680301
-0.00718096 -0.0124722 -0.0294797
-0.00812582 -0.00604712 -0.0126612
0.020976 0.0514005 -0.0215429
0.0102045 0.0389284 -0.0253223
0.00566918 0.00793685 -0.0194642
0.0154958 0.0222988 0.0141729
-0.000566918 0.0466762 -0.0387394
-0.0100155 0.00774788 -0.0436527
-0.00831479 -0.0417629 -0.0325033
-0.00132281 -0.041574 -0.0200311
0.00566918 0.0287238 -0.0224877
0.0249444 0.05518 -0.020787
0.0294797 0.027401 0.0684081
-0.00510226 -0.00321253 0.0194642
-0.00264562 0.0126612 -0.062361
0.0132281 0.000944863 0.0192752
0.0179524 -0.00132281 0.00188973
-0.013795 -0.0173855 -0.0111494
-0.0175745 -0.0153068 0.00680301
-0.0096376 -0.020598 -0.00188973
-0.00944863 -0.0330702 -0.00434637
-0.000377945 -0.00188973 0.0226767
-0.00132281 0.0096376 0.0241885
0.00302356 -0.0251334 -0.000944863
-0.00453534 -0.0379835 0.00585815
-0.00812582 -0.0262672 0.0120942
-0.00377945 -0.0107714 -0.0374166
-0.0062361 -0.0117163 -0.0366607
-0.0192752 -0.0170075 -0.0247554
-0.000944863 0.0839038 -0.0453534
-0.0187083 0.0124722 -0.054991
-0.0122832 -0.0788016 -0.0334482
0.000188973 -0.0767229 -0.00925966
-0.00377945 0.0198421 -0.0610381
Vibration 8
-0.00642507 0.013795 0.00132281
-0.00585815 0.00718096 -0.0143619
0.00075589 0.00264562 -0.0170075
0.0075589 0.0062361 -0.013795
0.00736993 0.013606 0.00321253
0.000566918 0.0179524 0.0181414
0.0149288 0.0171965 0.0075589
0.000377945 0.0304246 0.054991
0.000377945 0.0436527 0.0905179
-0.0062361 0.0141729 -0.000944863
0.0226767 0.0041574 0.0145509
0.034393 -0.0020787 0.013984
0.0149288 0.00132281 -0.00264562
-0.0179524 0.0126612 -0.0211649
-0.02759 0.0183303 -0.0196532
0.0326923 -0.0075589 0.00113384
0.00113384 -0.00548021 -0.0164406
-0.00774788 0.0141729 0.00699199
-0.00812582 0.0128501 0.0162516
0.000188973 -0.00888171 0.00188973
0.00925966 -0.0326923 -0.0236216
0.00925966 -0.0306136 -0.0326923
-0.000944863 -0.00548021 0.0149288
0.0181414 -0.00831479 -0.0145509
0.0228657 0.020787 0.0100155
0.00151178 -0.0393063 -0.0158737
-0.00661404 -0.0264562 -0.0109604
-0.0107714 -0.00472431 -0.00151178
-0.0185193 0.00982658 0.00188973
-0.0075589 -0.0325033 -0.0158737
-0.0147399 -0.0249444 -0.0147399
-0.0215429 -0.00869274 -0.00812582
-0.0202201 0.00188973 -0.00188973
-0.00377945 0.0202201 0.0096376
0.0141729 -0.0493218 -0.0198421
-0.034771 0.00925966 -0.00340151
-0.0100155 0.00453534 -0.0219208
0.0119053 0.00188973 0.00850377
0.0372276 0.00113384 0.0270231
0.0585815 -0.0102045 0.0268341
-0.0349599 0.0166296 -0.0355268
-0.0515895 0.0253223 -0.0317474
-0.0149288 0.0321253 0.0181414
-0.0147399 0.0289128 0.034771
0.0158737 -0.0519675 -0.0366607
0.0158737 -0.0468652 -0.0508336
-0.00774788 0.000188973 0.00793685
0.00925966 -0.0145509 0.0194642
-0.00510226 0.00113384 0.027779
0.041385 -0.0188973 -0.00529123
0.00812582 -0.0219208 -0.0438416
-0.00245664 0.0145509 -0.00434637
-0.00377945 -0.0425188 -0.0198421
-0.0158737 -0.0300466 -0.0190862
-0.0279679 -0.00453534 -0.00831479
-0.0260782 0.0154958 0.00321253
0.0132281 0.0126612 0.0119053
Vibration 9
0.00377945 -0.00699199 -0.0323143
0.0041574 -0.0120942 -0.0353379
0.00812582 -0.0145509 -0.0117163
0.0128501 -0.0120942 0.0230547
0.0130391 -0.00661404 0.0272121
0.00888171 -0.00377945 -0.013984
0.0168186 -0.00453534 0.0823921
0.0096376 0.00340151 -0.0385504
0.0105825 0.0103935 -0.0653845
-0.00302356 -0.00264562 -0.0294797
-0.00510226 -0.0185193 -0.0149288
-0.00812582 -0.0173855 0.00359048
-0.00888171 -0.000188973 0.00718096
-0.0107714 0.0181414 -0.00944863
-0.00774788 0.0156847 -0.0279679
-0.00850377 -0.00264562 0.0296687
0.00850377 -0.0171965 -0.0141729
0.00812582 -0.0130391 -0.0105825
0.00774788 -0.0075589 -0.0062361
0.00736993 -0.0075589 -0.0062361
0.00793685 -0.0153068 -0.0128501
0.00812582 -0.0196532 -0.0164406
0.00604712 0.00226767 0.000944863
0.00151178 0.00907068 0.0447865
0.0166296 -0.00302356 0.140974
0.000566918 -0.00566918 -0.0130391
-0.00812582 0.0130391 -0.00680301
-0.0100155 0.00680301 -0.00377945
-0.0117163 0.0238105 0.0124722
-0.0141729 0.0319364 -0.00850377
-0.0190862 0.0247554 -0.00925966
-0.0154958 -0.00529123 -0.00718096
-0.0117163 -0.0151178 -0.0041574
-0.0168186 0.0328812 -0.0211649
0.0103935 -0.0228657 -0.0196532
-0.00699199 0.02759 0.0538572
0.00113384 -0.013795 -0.0525344
-0.00396842 0.013606 -0.0268341
-0.00377945 -0.0326923 -0.0177634
-0.00869274 -0.0300466 0.0154958
-0.013795 0.0332592 -0.00831479
-0.00793685 0.0289128 -0.0400622
0.00793685 -0.0128501 -0.0105825
0.0075589 -0.00264562 -0.0020787
0.00793685 -0.0170075 -0.0145509
0.00850377 -0.0241885 -0.0200311
-0.00245664 0.00699199 -0.00396842
0.0113384 -0.00151178 0.00340151
0.00793685 0.00869274 0.00888171
0.0062361 -0.000566918 0.0674632
-0.00396842 0.0020787 0.0366607
0.0096376 0.0326923 0.0430858
-0.0158737 0.0515895 -0.00907068
-0.0249444 0.0398732 -0.0117163
-0.0153068 -0.0196532 -0.0075589
-0.00907068 -0.0368497 -0.000566918
-0.0096376 0.0236216 -0.0374166
Vibration 10
-0.00075589 -0.00793685 -0.0332592
-0.000566918 -0.00453534 -0.0529123
-0.00226767 -0.00321253 -0.0383614
-0.00453534 -0.0041574 -0.0221098
-0.00453534 -0.00718096 -0.0103935
-0.00264562 -0.00850377 -0.0100155
-0.0075589 -0.00850377 0.00831479
-0.00321253 -0.00812582 0.020598
-0.00377945 -0.00661404 0.0495108
0.000377945 -0.00850377 -0.0234326
0.00472431 -0.0245664 -0.00718096
0.00321253 -0.0243775 0.0075589
-0.00377945 -0.00736993 0.00548021
-0.00774788 0.00831479 -0.0096376
-0.00510226 0.0062361 -0.0236216
-0.00604712 -0.00812582 0.0213539
-0.00245664 0.000944863 -0.0232436
-0.0132281 -0.0239995 -0.0351489
-0.0145509 -0.0175745 -0.00888171
-0.00377945 0.0132281 0.0285349
0.00774788 0.0396842 0.0406291
0.00850377 0.0328812 0.0141729
-0.00529123 0.0141729 0.0536682
-0.020976 0.0151178 0.0141729
-0.0111494 -0.0096376 0.0260782
0.00736993 0.0145509 0.00170075
0.0100155 0.00245664 -0.00245664
0.00888171 0.00491329 -0.000377945
0.0124722 -0.00340151 -0.00302356
0.0113384 -0.00982658 -0.00548021
0.0096376 -0.00510226 -0.00491329
0.00529123 0.0124722 -0.0020787
0.00529123 0.0171965 -0.000188973
0.0179524 -0.00831479 0.0213539
0.00113384 0.0255113 0.00566918
0.00982658 -0.00566918 -0.0268341
0.00151178 -0.00321253 -0.0731324
0.00566918 0.00188973 0.0124722
0.00888171 -0.0376055 -0.00718096
0.00736993 -0.0364717 0.0202201
-0.0126612 0.0217318 -0.0105825
-0.00718096 0.0170075 -0.0340151
-0.0211649 -0.048566 -0.0638727
-0.0238105 -0.0368497 -0.0179524
0.0162516 0.0650066 0.0708647
0.0177634 0.0517785 0.0222988
-0.0117163 0.0185193 0.048377
0.0105825 0.00453534 0.0608492
-0.0149288 0.0192752 0.068975
-0.0224877 0.0107714 0.027779
-0.0160627 0.0196532 -0.00982658
-0.0349599 0.0306136 0.020976
0.0145509 -0.0224877 -0.00831479
0.0113384 -0.013984 -0.00642507
0.00151178 0.0211649 -0.0020787
0.00226767 0.0289128 0.00075589
0.0115273 -0.00340151 0.0232436
Vibration 11
0.00812582 0.0103935 0.00831479
0.00736993 0.0211649 0.0113384
-0.00264562 0.0270231 0.0096376
-0.0113384 0.0219208 0.0096376
-0.0120942 0.0109604 0.013984
-0.0020787 0.00453534 0.00434637
-0.0249444 0.00491329 0.0360938
-0.00264562 -0.0115273 -0.0130391
-0.00302356 -0.0283459 -0.0321253
0.0171965 0.00548021 0.0119053
0.0120942 0.0103935 0.00642507
0.0115273 0.0107714 0.00510226
0.0164406 0.0075589 0.00850377
0.0281569 -0.000566918 0.0187083
0.0285349 -0.000944863 0.020409
0.00850377 0.0119053 0.0020787
-0.00264562 0.027401 0.013984
-0.0111494 0.0328812 0.0257003
-0.0103935 0.0173855 0.0249444
-0.00113384 -0.00151178 0.013795
0.00699199 -0.0041574 0.00566918
0.00585815 0.0100155 0.00529123
0.000566918 -0.0190862 0.0124722
-0.0177634 0.0283459 -0.0198421
-0.0419519 -0.00151178 0.0661404
0.00812582 0.0020787 -0.0241885
0.00188973 -0.0126612 -0.0281569
-0.00340151 -0.0122832 -0.0188973
0.00283459 -0.0173855 -0.0126612
-0.000566918 -0.0287238 -0.0400622
-0.00907068 -0.0445975 -0.0419519
-0.0177634 -0.034582 -0.0304246
-0.0158737 -0.013795 -0.0192752
0.0200311 -0.0181414 0.0285349
0.0130391 0.013606 -0.020598
-0.00944863 -0.020787 -0.0487549
0.0149288 0.0253223 0.0149288
-0.00075589 -0.013984 -0.00661404
0.00699199 0.0145509 0.00283459
0.00585815 0.0145509 0.000188973
0.0366607 -0.00661404 0.0249444
0.0366607 -0.00585815 0.0268341
-0.0185193 0.048377 0.034393
-0.0171965 0.0198421 0.0321253
0.0141729 -0.0181414 -0.00188973
0.0126612 0.00642507 -0.00264562
0.0119053 -0.0236216 0.0154958
0.000377945 -0.0217318 0.0122832
-0.00831479 -0.0264562 0.00982658
-0.0357158 0.0393063 -0.034582
0 0.0491329 -0.0283459
-0.0374166 0.00869274 -0.0130391
0.00321253 -0.0270231 -0.0464873
-0.0102045 -0.0610381 -0.0519675
-0.0266451 -0.0425188 -0.0309915
-0.0230547 -0.00226767 -0.0107714
0.0128501 -0.0156847 0.0226767
Vibration 12
-0.00907068 -0.00226767 0.0228657
-0.00850377 -0.0128501 0.034393
0.00113384 -0.0185193 0.0247554
0.00793685 -0.0141729 0.0160627
0.00869274 -0.00359048 0.013795
-0.000377945 0.00226767 0.0124722
0.020409 0.0020787 0.0096376
0.000566918 0.0154958 -0.00472431
0.00170075 0.0291018 -0.0211649
-0.0179524 0.00245664 0.0117163
-0.0122832 0.00774788 0.00774788
-0.0117163 0.00793685 -0.00302356
-0.0162516 0.000944863 -0.00869274
-0.0283459 -0.00113384 -0.0100155
-0.0294797 0 0
-0.00793685 -0.00226767 -0.0158737
0.00113384 -0.0158737 0.0149288
0.0179524 -0.0279679 -0.00869274
0.0173855 -0.0062361 -0.013795
0.000188973 0.027779 0.00529123
-0.0162516 0.0370386 0.0249444
-0.0147399 0.013795 0.0289128
-0.00226767 0.0532903 0.00188973
0.0294797 -0.0364717 0.0109604
0.0353379 0.00850377 0.00718096
0.00982658 -0.00302356 -0.0170075
0.00510226 -0.00718096 -0.0181414
0.00132281 -0.00396842 -0.0109604
0.00359048 -0.00340151 -0.00510226
0.00264562 -0.0141729 -0.0253223
-0.0041574 -0.0175745 -0.0257003
-0.0100155 -0.00982658 -0.0181414
-0.00793685 -0.00113384 -0.0111494
0.0188973 -0.00170075 0.0257003
0.0122832 0 -0.0162516
-0.00831479 -0.00585815 -0.0315584
-0.0162516 -0.0171965 0.0457314
0.00642507 -0.00283459 -0.00245664
-0.00661404 0.0115273 0.013984
-0.0062361 0.0119053 -0.00566918
-0.0368497 -0.00340151 -0.0183303
-0.0389284 -0.00188973 -0.000377945
0.0323143 -0.0534792 -0.0215429
0.0302356 -0.0153068 -0.0311805
-0.0298577 0.061794 0.0376055
-0.0272121 0.0190862 0.0425188
-0.0160627 0.05518 0.00566918
-0.0062361 0.0668963 0.000566918
0.013795 0.0591484 -0.00359048
0.0496998 -0.0445975 0.0156847
0.00736993 -0.0614161 0.0366607
0.0589595 -0.0279679 -0.00075589
0.00585815 -0.0158737 -0.0300466
-0.00585815 -0.0243775 -0.0315584
-0.0166296 -0.0103935 -0.0185193
-0.0124722 0.00604712 -0.00566918
0.0168186 -0.00188973 0.0183303
Vibration 13
0.00340151 -0.0109604 -0.00680301
0.00359048 -0.0145509 -0.00548021
0.00661404 -0.0162516 -0.0041574
0.0109604 -0.0141729 -0.00453534
0.0113384 -0.0105825 -0.00075589
0.00774788 -0.00812582 -0.00188973
0.0158737 -0.00831479 0.0062361
0.00793685 -0.000566918 0.00491329
0.00831479 0.00812582 0.0126612
-0.00396842 -0.00699199 -0.0102045
-0.0020787 -0.0132281 -0.00396842
-0.00888171 -0.0096376 -0.00377945
-0.0171965 -0.000944863 -0.00907068
-0.0232436 0.00736993 -0.0179524
-0.0166296 0.00340151 -0.0185193
-0.020409 0.000188973 -0.00585815
0.00680301 -0.0153068 -0.0041574
0.00699199 0.0272121 0.0308025
0.00680301 0.0332592 0.0289128
0.00548021 -0.00585815 -0.0096376
0.00453534 -0.0504557 -0.0440306
0.00434637 -0.0517785 -0.0385504
0.00472431 0.00226767 -0.0124722
0.0164406 -0.0170075 0.0268341
0.0219208 -0.00566918 0.013606
-0.013984 0.0706758 0.0188973
-0.00529123 0.0268341 0.00472431
-0.00585815 0.013984 0.00377945
0.00566918 -0.00604712 0.00188973
-0.00170075 -0.00548021 -0.00340151
-0.000944863 -0.0253223 -0.00604712
-0.00699199 -0.0075589 -0.000377945
-0.00888171 0.0145509 0.0041574
0.00982658 -0.0170075 0.0391173
-0.0336371 0.111116 0.0340151
0.00661404 -0.00925966 -0.034393
0.0020787 -0.0154958 -0.00491329
-0.0224877 0.00548021 0.0113384
0.00585815 -0.0215429 0.000944863
-0.00642507 -0.0141729 0.00113384
-0.0332592 0.0170075 -0.0245664
-0.020976 0.00869274 -0.0243775
0.00736993 0.0568808 0.0580146
0.00831479 0.0678412 0.0565028
0.00302356 -0.0823921 -0.0748331
0.00264562 -0.0791795 -0.0587705
-0.00170075 -0.000944863 -0.00245664
0.00396842 0.0154958 -0.0120942
0.0103935 0 -0.020409
0.0272121 -0.0257003 0.041196
0 -0.0351489 0.048188
0.0478101 -0.00302356 0.0147399
0.00151178 -0.0132281 -0.00699199
0.00377945 -0.0527234 -0.0115273
-0.0105825 -0.0122832 -0.00075589
-0.0134171 0.0285349 0.00661404
-0.0120942 -0.00736993 0.0326923
Vibration 14
-0.0154958 0.00264562 0.00226767
-0.0151178 -0.00907068 0.00132281
-0.00472431 -0.0154958 -0.00548021
0.00453534 -0.0105825 -0.00529123
0.00491329 0.000944863 -0.00113384
-0.00585815 0.00736993 -0.00170075
0.0213539 0.00888171 0.00510226
-0.00491329 0.0219208 -0.0105825
-0.00377945 0.0372276 -0.0213539
-0.013984 0.00132281 0.00529123
-0.0249444 0.0134171 -0.00907068
-0.00396842 0.00188973 -0.00075589
0.0251334 -0.020598 0.0200311
0.0353379 -0.0325033 0.0330702
0.0153068 -0.0202201 0.0255113
0.0506447 -0.034582 0.0309915
-0.00491329 -0.0221098 -0.0122832
-0.00188973 -0.0298577 -0.0211649
-0.00226767 -0.0243775 -0.020787
-0.0062361 -0.013606 -0.0134171
-0.00888171 -0.00907068 -0.00774788
-0.00850377 -0.0128501 -0.00661404
-0.00699199 -0.00718096 -0.0119053
-0.0447865 0.0126612 -0.0529123
0.0489439 0.020976 0.0134171
0.00151178 0.0158737 0.00699199
0.000944863 0.00396842 0.00321253
-0.00151178 0.0128501 0.00869274
-0.00188973 0.0126612 0.00888171
0.00188973 -0.013606 -0.00302356
-0.00321253 -0.00642507 -0.0020787
-0.0109604 0.0187083 0.00396842
-0.00982658 0.0262672 0.00869274
0.00680301 0.0132281 0.0266451
-0.000944863 0.0285349 0.0115273
-0.00944863 0.0111494 -0.0075589
-0.0232436 -0.013984 0.0041574
0.00491329 0.013606 0.0188973
-0.0495108 0.0321253 -0.0262672
-0.0113384 0.0105825 -0.0105825
0.0610381 -0.0527234 0.0512116
0.0232436 -0.0291018 0.0353379
0.000944863 -0.0389284 -0.027401
0.000566918 -0.0281569 -0.0260782
-0.0115273 -0.00245664 -0.00340151
-0.0113384 -0.00736993 0
-0.0115273 -0.0122832 -0.000377945
-0.00736993 0.0075589 -0.0117163
-0.00283459 -0.0119053 -0.0222988
-0.0538572 0.0224877 -0.0719986
-0.013984 0.0451645 -0.128312
-0.132092 0.00396842 -0.0171965
0.00718096 -0.0315584 -0.00812582
-0.00188973 -0.0190862 -0.00604712
-0.0179524 0.0300466 0.00377945
-0.0154958 0.0432747 0.0122832
0.00793685 0.013606 0.0232436
Vibration 15
-0.00736993 0 -0.0062361
-0.00680301 -0.00491329 -0.0062361
-0.00302356 -0.0075589 -0.00283459
0.00075589 -0.00529123 0.000377945
0.00113384 -0.000377945 -0.00132281
-0.00321253 0.0020787 -0.00377945
0.00793685 0.00283459 -0.00245664
-0.00283459 0.00982658 -0.00226767
-0.00245664 0.0190862 -0.00075589
-0.00793685 0 -0.00566918
-0.013606 0.00283459 -0.00982658
-0.00491329 -0.0020787 -0.00283459
0.00812582 -0.00925966 0.00718096
0.0117163 -0.0109604 0.00925966
0.00340151 -0.00604712 0.00302356
0.020787 -0.0168186 0.0173855
-0.00302356 -0.00585815 -0.00075589
-0.00245664 0.020409 0.0202201
-0.00340151 0.0404401 0.0328812
-0.00566918 0.0351489 0.0257003
-0.00604712 -0.000566918 -0.00264562
-0.00453534 -0.020976 -0.0156847
-0.0105825 0.0710537 0.048188
-0.0190862 0.00642507 -0.0164406
0.0187083 0.00736993 -0.00529123
-0.00869274 0.000188973 -0.00377945
-0.00321253 0.00585815 -0.0020787
0.00226767 -0.0187083 -0.0147399
0.00566918 -0.0230547 -0.0147399
-0.00359048 0.0313695 0.00907068
0.00793685 0.0141729 0.00661404
0.0222988 -0.0317474 -0.00491329
0.0196532 -0.0449755 -0.0143619
-0.00680301 -0.0268341 -0.0317474
-0.0151178 -0.00774788 -0.00604712
0.0177634 -0.0215429 0.00075589
-0.00982658 -0.00661404 -0.00793685
-0.0170075 -0.0217318 -0.034771
-0.0241885 0.00869274 -0.0179524
-0.00831479 -0.000377945 -0.00529123
0.0219208 -0.0168186 0.0171965
0.00680301 -0.00774788 0.00529123
-0.000944863 0.0272121 0.027401
-0.00264562 0.0612271 0.0496998
-0.0075589 -0.0103935 -0.0130391
-0.00510226 -0.0455424 -0.0349599