[Molden Format]
[FREQ]
-1932.7
12.3
13.9
16.2
26.7
27.7
34.3
41.2
46.6
50.7
66.6
71.3
83.2
88.1
91.8
99.9
111.2
115.0
135.0
143.3
161.0
178.4
207.5
209.8
218.2
218.4
234.7
238.6
260.6
276.5
290.4
303.3
315.5
331.4
349.2
353.0
357.6
371.7
383.1
414.6
435.4
453.9
465.3
487.0
496.1
507.6
521.3
530.1
541.3
552.8
560.5
583.9
599.9
605.1
614.2
617.1
637.0
647.1
651.4
676.8
682.3
703.8
720.7
746.1
755.4
782.0
820.4
822.4
841.3
853.1
880.1
884.2
895.9
901.2
905.3
941.5
966.8
969.8
982.2
1008.9
1009.6
1011.2
1015.1
1016.4
1019.3
1033.2
1051.5
1067.3
1071.0
1080.5
1084.6
1126.5
1141.5
1178.3
1179.5
1183.2
1183.8
1192.9
1215.8
1223.1
1232.1
1249.7
1263.3
1270.0
1275.5
1278.7
1284.3
1287.1
1295.7
1302.8
1315.1
1322.4
1330.2
1336.5
1340.2
1348.2
1354.9
1355.6
1362.6
1377.5
1392.4
1424.8
1444.1
1470.2
1502.2
1509.5
1521.4
1528.4
1541.5
1554.3
1596.6
1600.2
1627.2
1645.0
1671.1
1675.7
1689.6
1698.2
1698.3
1707.1
1708.9
1812.5
2095.1
2275.8
2448.4
2651.8
2654.3
2667.1
2673.2
2728.0
2736.2
2740.5
2743.0
2745.1
2748.5
2750.2
2750.3
2754.7
2763.5
2763.9
2766.6
2767.1
2770.1
2779.4
2791.4
       
[FR-COORD]
C 0.33108 -2.92605 -1.90957
C 2.9697 -2.92605 -1.90957
C 4.28571 -0.623421 -1.90957
N 3.07024 1.62894 -1.87763
C 0.527045 1.6195 -1.92676
C -0.956579 -0.60698 -1.98232
N -0.686915 3.98675 -2.09949
C -3.62657 -0.43955 -2.01558
N -5.80675 -0.237161 -2.02276
C -1.05787 -5.31372 -1.7839
C -0.639105 -7.19154 -3.60352
C -1.94774 -9.45468 -3.48465
C -3.67854 -9.83017 -1.50365
C -4.10637 -7.9856 0.332781
C -2.78583 -5.71755 0.170642
O -4.81805 -12.1247 -1.6074
C 7.06191 -0.53706 -1.88595
C 8.32046 1.23097 -0.378701
C 10.9476 1.29125 -0.340529
C 12.3369 -0.399488 -1.82037
C 11.074 -2.14919 -3.34425
C 8.44689 -2.22024 -3.37789
C 15.1514 -0.307458 -1.789
C -6.6575 -12.6738 0.271743
C -0.947509 5.59529 -0.458259
C -2.71667 2.85008 4.33484
C -4.84242 5.18201 3.57479
C -3.82613 7.46517 2.66754
C -1.57169 7.4716 1.08414
C -7.05057 5.19599 5.0399
C -8.24355 7.46725 5.58886
C -7.19891 9.73795 4.72261
C -5.00645 9.75136 3.26828
O -0.207114 9.65763 1.28766
O -1.60003 2.95251 6.26803
O -2.97707 1.50403 2.38616
H 4.00055 -4.70542 -1.83814
H -4.94957 3.26129 1.67902
H 0.709214 -6.85914 -5.12758
H -1.66863 -10.9324 -4.88286
H -5.44184 -8.27908 1.8593
H -3.10028 -4.24017 1.58624
H 7.2299 2.56398 0.759859
H 11.9217 2.66319 0.839983
H 12.147 -3.45744 -4.51059
H 7.47406 -3.57706 -4.58353
H 15.9005 -0.00831479 0.125856
H 15.8529 1.2561 -2.97027
H 16.0198 -2.04922 -2.51012
H -7.27847 -14.5798 -0.269475
H -8.23807 -11.3431 0.170264
H -5.80316 -12.6999 2.15485
H -7.81515 3.41322 5.75063
H -9.96774 7.49617 6.70834
H -8.12034 11.5241 5.19297
H -4.20351 11.5302 2.60064
H 1.4377 9.49285 0.395142

[FR-NORM-COORD]
Vibration 1
-0.000377945 0.000377945 0.000377945
0.000377945 0.000566918 0
-0.000377945 -0.000188973 0.000566918
-0.000377945 0.00075589 -0.000188973
-0.000377945 -0.00283459 -0.00170075
0.000377945 0.000377945 -0.000377945
0.00132281 0.0020787 0.00453534
-0.00188973 0.00113384 0.00170075
-0.000188973 -0.000377945 -0.000944863
0.000188973 0 0
0 0.000188973 0
0 -0.000188973 0
0.000188973 0.000377945 0
0 -0.000188973 0
0 0 0
0 -0.000188973 0
0 0.000188973 0
0 0 0
0 0 0
0 0 0
0 0 0
0 0.000188973 0
0 0 0
0 0 0
-0.000188973 -0.00396842 -0.00321253
0.0515895 -0.106958 -0.0377945
-0.0566918 -0.0170075 -0.0935414
0.00831479 0.013795 -0.00245664
-0.0041574 0 -0.00075589
-0.013606 0.0075589 0.0132281
0.00245664 -0.00377945 0.00907068
0.00264562 0.00132281 -0.00151178
0.00472431 0.00359048 0.00736993
0.000188973 0.00245664 -0.000188973
-0.00736993 0.0119053 0.00226767
0.0544241 -0.0119053 0.0563138
-0.00132281 -0.000377945 0
-0.646853 1.19242 0.349032
-0.000188973 -0.000377945 0.000377945
-0.000188973 0.000377945 0.000566918
0 0.00075589 -0.000188973
-0.00075589 0.0041574 0.000188973
-0.000188973 -0.000377945 0.000566918
0 -0.000377945 0
0 0 0.000188973
0.000188973 0 0.000188973
-0.000188973 0 0
0 -0.000188973 0.000188973
-0.000188973 0 0.000188973
0 0.000377945 0.000377945
0.000188973 0.000377945 0
0.000188973 0.000188973 -0.000188973
-0.0168186 -0.0117163 -0.0187083
-0.00245664 0.00359048 0.00302356
-0.0100155 0.00340151 -0.0115273
0.00245664 0.00491329 0.00170075
0.000377945 -0.0041574 0.0041574
Vibration 2
-0.00642507 -0.00925966 0.0020787
-0.00642507 -0.00566918 -0.00226767
-0.0100155 -0.00377945 0.00283459
-0.0122832 -0.00548021 0.00548021
-0.0126612 -0.00869274 0.00736993
-0.0096376 -0.0107714 0.0107714
-0.0147399 -0.0103935 0.00321253
-0.0100155 -0.0141729 0.0217318
-0.0103935 -0.0170075 0.0311805
-0.00170075 -0.0124722 -0.00453534
-0.00321253 -0.0020787 -0.0156847
0.00340151 -0.00604712 -0.0226767
0.0113384 -0.020976 -0.0183303
0.0124722 -0.0311805 -0.00774788
0.00566918 -0.0266451 -0.000944863
0.0179524 -0.0238105 -0.0255113
-0.0100155 -0.00151178 0.00529123
-0.0126612 -0.0315584 0.0421409
-0.0124722 -0.0313695 0.0453534
-0.0109604 0 0.0111494
-0.00888171 0.0304246 -0.0257003
-0.00888171 0.0292908 -0.0283459
-0.0109604 0.00075589 0.0134171
0.0258892 -0.0385504 -0.0221098
-0.00699199 -0.00075589 -0.00510226
0.0075589 0.0243775 0.00604712
0.00642507 0.0226767 0.00699199
0.00566918 0.0181414 -0.00529123
-0.00075589 0.00888171 -0.0143619
0.0120942 0.0308025 0.0156847
0.0171965 0.034204 0.0119053
0.0166296 0.0298577 -0.000566918
0.0107714 0.0219208 -0.00907068
0 0.0103935 -0.0340151
0.0134171 0.0281569 0.00245664
0.00188973 0.0198421 0.00982658
-0.00321253 -0.0041574 -0.00982658
-0.00245664 0.0170075 0.0134171
-0.00925966 0.00925966 -0.0185193
0.00245664 0.00170075 -0.0311805
0.0185193 -0.0425188 -0.00472431
0.0062361 -0.034771 0.00718096
-0.0141729 -0.055369 0.0684081
-0.013984 -0.055369 0.0744552
-0.00736993 0.05518 -0.0519675
-0.00812582 0.0532903 -0.0557469
-0.0109604 -0.0096376 0.0151178
-0.0111494 0.00736993 0.0221098
-0.0105825 0.00472431 0.0041574
0.0292908 -0.0374166 -0.0296687
0.0219208 -0.0423299 -0.0096376
0.0326923 -0.0459203 -0.0251334
0.0128501 0.034393 0.0255113
0.0215429 0.0406291 0.0185193
0.020409 0.0326923 -0.00377945
0.0103935 0.0185193 -0.0188973
-0.00226767 0.00340151 -0.0368497
Vibration 3
-0.00869274 -0.00566918 0.000944863
-0.00869274 -0.00226767 0.0075589
-0.0107714 -0.00075589 0.00302356
-0.0147399 -0.00245664 -0.00661404
-0.0145509 -0.00585815 -0.00907068
-0.0117163 -0.0075589 -0.00529123
-0.0171965 -0.00718096 -0.0130391
-0.0120942 -0.0111494 -0.00642507
-0.0122832 -0.0145509 -0.00699199
-0.00548021 -0.00774788 -0.00151178
0.000566918 -0.00585815 -0.00226767
0.00302356 -0.00736993 -0.00661404
-0.00075589 -0.0109604 -0.0105825
-0.00642507 -0.0130391 -0.00982658
-0.00869274 -0.0113384 -0.00529123
0.00188973 -0.0120942 -0.0151178
-0.0111494 0.00510226 0.00907068
-0.0190862 0.0462983 -0.0321253
-0.0194642 0.0542351 -0.0262672
-0.0107714 0.0196532 0.0213539
-0.0020787 -0.0224877 0.0627389
-0.00188973 -0.0292908 0.0561249
-0.0111494 0.027401 0.0292908
-0.00340151 -0.0147399 -0.020976
-0.00793685 -0.0020787 -0.0164406
0.0164406 -0.000566918 -0.0107714
0.0162516 0.00529123 0.00604712
0.0141729 0.00396842 0.000566918
0.00283459 0.00075589 -0.0154958
0.027401 0.00869274 0.0230547
0.0366607 0.0105825 0.034393
0.034582 0.00925966 0.0283459
0.0234326 0.00585815 0.0115273
0.00472431 0.000944863 -0.0294797
0.0323143 -0.00359048 -0.0198421
-0.00245664 0.00075589 -0.00907068
-0.0075589 -0.00132281 0.0156847
-0.00151178 0.00661404 0.00566918
0.00321253 -0.00302356 0.00075589
0.0075589 -0.00604712 -0.00736993
-0.00925966 -0.0158737 -0.0128501
-0.0132281 -0.0128501 -0.00472431
-0.0257003 0.0721875 -0.0684081
-0.0262672 0.0869274 -0.0587705
0.00434637 -0.0502667 0.0997775
0.00585815 -0.062361 0.0869274
-0.0194642 0.034582 0.0315584
-0.0113384 0.0264562 0.0279679
-0.00340151 0.0283459 0.0368497
-0.00075589 -0.0145509 -0.0245664
-0.00396842 -0.0154958 -0.0245664
-0.00907068 -0.0158737 -0.0185193
0.0291018 0.0096376 0.027401
0.0453534 0.0134171 0.047999
0.0419519 0.0107714 0.0370386
0.0219208 0.00491329 0.00661404
0.000188973 -0.00283459 -0.0370386
Vibration 4
-0.00472431 0.00585815 -0.0158737
-0.00453534 0.00736993 -0.0107714
-0.00661404 0.00831479 -0.00944863
-0.00718096 0.00774788 -0.0151178
-0.00718096 0.00604712 -0.0230547
-0.00548021 0.00529123 -0.0253223
-0.00925966 0.00548021 -0.0224877
-0.00566918 0.00359048 -0.034771
-0.00566918 0.00170075 -0.0428968
-0.00434637 0.0062361 -0.00566918
0.000566918 -0.00642507 0.00869274
0.00113384 -0.00604712 0.0219208
-0.00340151 0.00736993 0.020598
-0.00850377 0.020409 0.00642507
-0.00888171 0.0194642 -0.00661404
-0.0020787 0.00604712 0.0349599
-0.00661404 0.00869274 0.00170075
-0.0130391 -0.0183303 0.0385504
-0.0130391 -0.0198421 0.0504557
-0.0075589 0.00680301 0.0253223
-0.00170075 0.034582 -0.0115273
-0.00151178 0.0351489 -0.0230547
-0.0075589 0.00566918 0.0374166
-0.00453534 0.0183303 0.0359048
-0.00529123 0.00283459 -0.0190862
0.0132281 -0.0200311 -0.0260782
0.0126612 -0.0143619 -0.0041574
0.00850377 -0.0102045 0.00132281
0.00075589 -0.00302356 -0.0096376
0.020787 -0.0202201 0.00869274
0.0249444 -0.0224877 0.0264562
0.020787 -0.0187083 0.0311805
0.0124722 -0.0126612 0.0187083
0.000188973 -0.00264562 -0.00888171
0.0285349 -0.02759 -0.034582
-0.00377945 -0.0147399 -0.02759
-0.00283459 0.00850377 -0.00642507
-0.00132281 -0.00548021 -0.0119053
0.00396842 -0.0168186 0.00944863
0.00491329 -0.0160627 0.0332592
-0.0120942 0.0309915 0.00529123
-0.0122832 0.0296687 -0.0177634
-0.0175745 -0.0387394 0.0578256
-0.0175745 -0.041574 0.0795575
0.00283459 0.0557469 -0.0309915
0.00226767 0.0566918 -0.0502667
-0.0145509 -0.0075589 0.0421409
-0.00264562 0.0134171 0.0504557
-0.00585815 0.0100155 0.0289128
-0.00132281 0.0134171 0.0495108
-0.00604712 0.0156847 0.0226767
-0.00793685 0.0340151 0.0376055
0.0239995 -0.0234326 0.00434637
0.0313695 -0.0270231 0.0366607
0.0241885 -0.020598 0.0451645
0.00925966 -0.00982658 0.0224877
-0.00113384 -0.000944863 -0.0117163
Vibration 5
0.00075589 0.00434637 -0.00283459
0.000566918 0.00283459 -0.00831479
0.00151178 0.00264562 -0.00812582
0.00264562 0.00340151 -0.0102045
0.00264562 0.00434637 -0.00566918
0.00151178 0.00472431 0.00226767
0 0.00264562 -0.00869274
0.00132281 0.00491329 0.0198421
0.00132281 0.00566918 0.0377945
-0.00245664 0.00604712 -0.00264562
-0.0338261 0.020976 -0.0247554
-0.041385 0.0251334 -0.0272121
-0.0156847 0.0141729 -0.00680301
0.0173855 -0.000944863 0.0162516
0.0232436 -0.00434637 0.0179524
-0.027401 0.020409 -0.0126612
0.00151178 0.000377945 -0.00226767
-0.000944863 0.00132281 -0.00113384
-0.00113384 -0.00377945 0.00944863
0.00151178 -0.0100155 0.0188973
0.00434637 -0.0102045 0.0168186
0.00434637 -0.00491329 0.0062361
0.00170075 -0.0170075 0.0325033
-0.0020787 0.0100155 0.00907068
-0.00396842 0.00585815 -0.0126612
0.0462983 0.0126612 0.00661404
0.0171965 -0.0173855 0.0041574
-0.0126612 -0.0105825 -0.0126612
-0.0151178 0.00548021 -0.0166296
0.0213539 -0.0349599 0.0107714
-0.00491329 -0.0459203 -0.000944863
-0.0351489 -0.0389284 -0.0188973
-0.0387394 -0.0211649 -0.0243775
-0.0328812 0.0168186 -0.0226767
0.0566918 0.0368497 -0.000377945
0.0517785 -0.00283459 0.0164406
-0.000566918 0.00226767 -0.0119053
0.0281569 -0.0268341 0.0147399
-0.0532903 0.0294797 -0.0400622
-0.0667073 0.0366607 -0.0444086
0.0377945 -0.00982658 0.0323143
0.047999 -0.0149288 0.034393
-0.00302356 0.00585815 -0.00831479
-0.00302356 -0.00340151 0.0105825
0.00642507 -0.0145509 0.0238105
0.00661404 -0.00529123 0.00472431
-0.00699199 -0.0270231 0.0374166
0.0111494 -0.013606 0.0425188
0.000944863 -0.0160627 0.0292908
-0.0194642 0.0185193 -0.00132281
0.00283459 0.0187083 0.0466762
0.0260782 -0.013606 -0.00396842
0.0455424 -0.0396842 0.0245664
-0.00226767 -0.0597153 0.00359048
-0.0561249 -0.0470542 -0.0283459
-0.061983 -0.0156847 -0.0376055
-0.0319364 0.0279679 -0.0230547
Vibration 6
-0.0119053 0.0126612 -0.0213539
-0.0119053 0.00812582 -0.0226767
-0.00774788 0.00585815 -0.0158737
-0.00434637 0.0075589 -0.0100155
-0.00434637 0.0119053 -0.00944863
-0.00831479 0.0145509 -0.0147399
0.000377945 0.0151178 -0.00170075
-0.00812582 0.0175745 -0.0117163
-0.00793685 0.0192752 -0.00907068
-0.0113384 0.0122832 -0.020787
-0.02759 0.0211649 -0.0334482
-0.0141729 0.013984 -0.0224877
0.0171965 -0.0020787 0.00188973
0.0281569 -0.0075589 0.00982658
0.0128501 0.000566918 -0.0020787
0.0340151 -0.0111494 0.0151178
-0.0075589 -0.00151178 -0.0100155
-0.00604712 0.00377945 -0.0175745
-0.00585815 -0.00831479 -0.00566918
-0.00699199 -0.0262672 0.013606
-0.00812582 -0.0300466 0.0190862
-0.00831479 -0.0173855 0.00699199
-0.00661404 -0.0417629 0.0300466
0.0822031 -0.0376055 0.0544241
0.0020787 0.00850377 0.00491329
-0.0128501 -0.00226767 -0.00151178
-0.00585815 0.00491329 -0.00170075
0.00226767 0.00491329 0.00774788
0.00566918 0.00359048 0.0122832
-0.0100155 0.0062361 -0.00793685
-0.00529123 0.00774788 -0.00396842
0.00340151 0.00774788 0.0062361
0.00718096 0.0062361 0.0120942
0.0128501 -0.0020787 0.0247554
-0.020598 -0.0109604 0.00340151
-0.00831479 0.00510226 -0.00718096
-0.0156847 0.00585815 -0.02759
-0.00340151 0.00944863 -0.00718096
-0.0498888 0.0328812 -0.0506447
-0.0258892 0.0196532 -0.0309915
0.048566 -0.0181414 0.0257003
0.0211649 -0.00321253 0.00359048
-0.00491329 0.0168186 -0.0317474
-0.00491329 -0.00472431 -0.0109604
-0.00888171 -0.0432747 0.0330702
-0.00869274 -0.020598 0.0109604
-0.0168186 -0.0585815 0.0368497
0.00907068 -0.0379835 0.0447865
-0.0117163 -0.0417629 0.0239995
0.0944863 -0.0445975 0.0648176
0.0631168 -0.0574477 0.0907068
0.123021 -0.0296687 0.0359048
-0.0170075 0.00604712 -0.0158737
-0.00850377 0.00888171 -0.00888171
0.00718096 0.00869274 0.0096376
0.013795 0.00604712 0.0198421
0.0130391 -0.00283459 0.0251334
Vibration 7
0.00736993 -0.0115273 -0.00359048
0.00718096 -0.0103935 -0.00453534
0.00453534 -0.00869274 -0.000377945
0.00188973 -0.0102045 0
0.00188973 -0.0117163 -0.00226767
0.00453534 -0.0130391 -0.00245664
0.00302356 -0.0111494 -0.00283459
0.0041574 -0.0183303 -0.00151178
0.00377945 -0.0241885 -0.00170075
0.00321253 -0.00925966 -0.00075589
-0.041196 0.00718096 -0.027401
-0.054991 0.0149288 -0.027401
-0.0215429 0.00604712 0.000188973
0.0260782 -0.0113384 0.0287238
0.0370386 -0.0179524 0.027401
-0.0421409 0.0164406 -0.00491329
0.00434637 0.000566918 0.00434637
-0.00661404 0.0041574 0.00944863
-0.00699199 0.0215429 0.00888171
0.00340151 0.0351489 0.00302356
0.0143619 0.0294797 0.000566918
0.0145509 0.0119053 0.00132281
0.00283459 0.0568808 -0.000944863
-0.00925966 0.00869274 0.0251334
0.00718096 -0.0122832 -0.000566918
-0.0143619 -0.0122832 -0.000566918
-0.00151178 -0.00075589 -0.0075589
0.0128501 -0.00453534 -0.000377945
0.0156847 -0.0130391 0.00340151
-0.00680301 0.00793685 -0.0160627
0.00302356 0.0132281 -0.0158737
0.0183303 0.00944863 -0.00718096
0.0232436 0.00075589 0.000188973
0.0268341 -0.020787 0.00925966
-0.0266451 -0.0217318 0.00680301
-0.00888171 -0.00585815 -0.00566918
0.00831479 -0.00982658 -0.00831479
0.00075589 0.00075589 -0.0103935
-0.0663294 0.0141729 -0.047999
-0.0912738 0.0281569 -0.048566
0.0531013 -0.0190862 0.0510226
0.0710537 -0.0292908 0.0464873
-0.0147399 -0.00585815 0.0132281
-0.0156847 0.0249444 0.0120942
0.0224877 0.0389284 -0.00245664
0.0230547 0.00774788 -0.00075589
0.00359048 0.0668963 -0.00283459
-0.0111494 0.0595264 -0.00548021
0.0151178 0.061794 0.00151178
-0.0374166 0.0213539 0.0130391
0.000377945 0.0241885 0.0742662
0.0287238 -0.0230547 0.00736993
-0.0190862 0.0105825 -0.0224877
-0.000944863 0.0198421 -0.0222988
0.0262672 0.0134171 -0.00661404
0.034771 -0.00226767 0.0062361
0.0264562 -0.0272121 0.00982658
Vibration 8
-0.000944863 0.00170075 0.00188973
-0.00113384 0.000944863 0.0062361
-0.000377945 0.000377945 0.00793685
0.000377945 0.000944863 0.00661404
0.000377945 0.00170075 0.00245664
-0.000188973 0.0020787 -0.000566918
0.000566918 0.00151178 0.00132281
-0.000188973 0.00226767 -0.00604712
-0.000188973 0.00188973 -0.0107714
-0.00170075 0.0020787 -0.000377945
-0.00510226 0.00529123 -0.00453534
-0.00434637 0.00491329 -0.00566918
0.000188973 0.000944863 -0.00245664
0.00283459 -0.00170075 0.000944863
0.00170075 -0.000944863 0.00188973
0.00151178 0.000377945 -0.00321253
-0.000377945 -0.00113384 0.00888171
0.00113384 -0.00491329 0.0107714
0.0020787 -0.00529123 0.00888171
-0.000188973 -0.00245664 0.00529123
-0.00264562 -0.000377945 0.00321253
-0.00170075 0 0.00510226
0.000188973 -0.00566918 -0.0183303
0.00944863 -0.00548021 0.00302356
-0.000566918 0.00264562 0
0.00113384 0 -0.00604712
0.000377945 -0.000377945 -0.000944863
-0.00151178 0.000944863 0
-0.00264562 0.00321253 -0.00151178
0.0020787 -0.00245664 0.00188973
0.00188973 -0.00359048 0.00529123
-0.000188973 -0.00226767 0.00585815
-0.0020787 -0.000188973 0.00321253
-0.00566918 0.00529123 -0.00377945
0.00491329 -0.00132281 -0.00812582
-0.00151178 0.00075589 -0.0062361
-0.00170075 0.000566918 0.00812582
-0.00264562 0.0020787 -0.00264562
-0.00812582 0.00812582 -0.00661404
-0.00699199 0.00718096 -0.00869274
0.00585815 -0.00453534 0.00302356
0.00340151 -0.00283459 0.0041574
0.00302356 -0.00642507 0.0141729
0.00132281 -0.0062361 0.0103935
-0.0020787 0.00245664 0.000377945
-0.00359048 0.00245664 0.00396842
0.0196532 0.485282 -0.104313
-0.00151178 -0.313883 -0.428779
-0.0164406 -0.198232 0.424432
0.0100155 -0.00529123 0.00188973
0.00736993 -0.00736993 0.0115273
0.0170075 -0.00774788 -0.000377945
0.00377945 -0.00340151 0.00132281
0.00321253 -0.00510226 0.00774788
-0.000377945 -0.00321253 0.00850377
-0.00359048 0.00075589 0.00377945
-0.00491329 0.0062361 -0.00264562
Vibration 9
-0.0147399 0 -0.0179524
-0.013984 -0.00283459 -0.0272121
-0.0115273 -0.00472431 -0.0230547
-0.00925966 -0.00340151 -0.0222988
-0.00888171 0 -0.0166296
-0.0120942 0.00188973 -0.00812582
-0.00113384 0.00491329 -0.0154958
-0.0117163 0.0100155 0.0166296
-0.0109604 0.0202201 0.0421409
-0.013984 -0.000188973 -0.013606
0.00718096 -0.0143619 0.00548021
0.0145509 -0.0181414 0.0134171
-0.00132281 -0.00774788 0.00170075
-0.0251334 0.00736993 -0.0190862
-0.0302356 0.00982658 -0.0258892
0.0102045 -0.013984 0.0132281
-0.0119053 -0.000566918 -0.0119053
-0.0257003 0.00302356 -0.00396842
-0.0262672 0.0141729 0.00812582
-0.0130391 0.0211649 0.0124722
0.000944863 0.0168186 0.00585815
0.00132281 0.00566918 -0.0062361
-0.013606 0.034204 0.0226767
-0.00377945 -0.00472431 0.00226767
0.0119053 -0.00151178 -0.00585815
0.0232436 -0.00132281 0.0291018
0.0179524 -0.00566918 0.0020787
0.0194642 -0.00774788 0.00075589
0.0287238 -0.0117163 0.0122832
0.00548021 -0.00529123 -0.0183303
-0.00566918 -0.00510226 -0.0400622
-0.00321253 -0.00661404 -0.0396842
0.0109604 -0.00774788 -0.0192752
0.047999 -0.027401 0.041385
0.00604712 0.013606 0.0376055
0.0383614 -0.00831479 0.0325033
-0.0154958 -0.00377945 -0.0340151
0.0417629 -0.0194642 0.0115273
0.0188973 -0.0228657 0.013795
0.0326923 -0.0292908 0.0289128
-0.0385504 0.0164406 -0.0291018
-0.0461093 0.0192752 -0.0389284
-0.0360938 -0.00245664 -0.0075589
-0.0374166 0.0170075 0.013795
0.0119053 0.0221098 0.00982658
0.0120942 0.00245664 -0.0111494
-0.0215429 0.082581 0.0181414
-0.0158737 0.0096376 -0.0115273
-0.00359048 0.020976 0.0668963
0.0128501 -0.0145509 0.0171965
-0.0107714 -0.0153068 -0.0270231
-0.0213539 0.020787 0.0105825
0.00283459 -0.00359048 -0.0173855
-0.0168186 -0.00491329 -0.0572587
-0.0119053 -0.00661404 -0.0566918
0.013795 -0.00907068 -0.0190862
0.048188 -0.0317474 0.0419519
Vibration 10
0.0156847 -0.00283459 -0.0192752
0.0153068 0.00680301 -0.041196
0.00718096 0.0119053 -0.0434637
-0.000566918 0.0075589 -0.034204
-0.00132281 -0.00170075 -0.0158737
0.00661404 -0.00699199 -0.00510226
-0.0117163 -0.00661404 -0.00548021
0.00566918 -0.0170075 0.0190862
0.00472431 -0.0257003 0.0381725
0.0221098 -0.00566918 -0.00642507
0.0173855 -0.0122832 -0.000566918
0.0113384 -0.00869274 0.00642507
0.00944863 0.00245664 0.00661404
0.020409 0.00566918 0.00604712
0.0270231 0.000944863 -0.000188973
-0.00396842 0.00888171 0.0096376
0.00699199 0.0160627 -0.0396842
0.000566918 0.0149288 -0.0330702
0.000566918 0.000566918 -0.0041574
0.0075589 -0.0126612 0.0177634
0.0143619 -0.00340151 0.00113384
0.0143619 0.0113384 -0.0279679
0.00793685 -0.0394953 0.0597153
-0.034204 0.0372276 -0.0117163
-0.0166296 -0.0117163 -0.00151178
-0.020976 -0.00188973 0.0147399
-0.0156847 0.00434637 0.0120942
-0.00982658 -0.00151178 0.00453534
-0.0149288 -0.0102045 -0.00245664
-0.0109604 0.0154958 0.0187083
0.000188973 0.0211649 0.0200311
0.00642507 0.0156847 0.0128501
0.00075589 0.0041574 0.00453534
-0.0117163 -0.0109604 -0.0107714
-0.0262672 -0.00491329 0.0179524
-0.0215429 -0.000188973 0.013795
0.0222988 0.0103935 -0.0525344
-0.0202201 -0.000566918 0.0153068
0.0168186 -0.0198421 -0.00264562
0.00642507 -0.0130391 0.0100155
0.0234326 0.0119053 0.00982658
0.0349599 0.00359048 -0.000944863
-0.00434637 0.0232436 -0.0474321
-0.00510226 -0.00226767 0.00396842
0.0200311 -0.00907068 0.0128501
0.0200311 0.0170075 -0.0389284
-0.0181414 -0.00245664 0.0640617
0.0419519 -0.0740773 0.034204
0.00113384 -0.0653845 0.113762
-0.0538572 0.0447865 -0.0158737
-0.0151178 0.0585815 -0.0325033
-0.0566918 0.0287238 -0.00170075
-0.0160627 0.0198421 0.0238105
0.00453534 0.0298577 0.0262672
0.0156847 0.0202201 0.013795
0.00510226 0 -0.00151178
-0.0173855 -0.0117163 -0.0211649
Vibration 11
0.00529123 -0.0117163 -0.0296687
0.00585815 -0.0187083 -0.034582
0.0122832 -0.0224877 -0.0102045
0.0175745 -0.0188973 0.00982658
0.0181414 -0.0113384 0.00925966
0.0120942 -0.00718096 -0.00812582
0.0190862 -0.0113384 0.0226767
0.0130391 0.00680301 -0.00510226
0.0143619 0.0226767 -0.00359048
-0.00529123 -0.00585815 -0.0328812
-0.00302356 -0.0202201 -0.0171965
-0.00944863 -0.0164406 -0.00566918
-0.0179524 0.00170075 -0.00982658
-0.027401 0.0198421 -0.0302356
-0.020409 0.0145509 -0.041385
-0.0183303 0.00113384 0.00831479
0.0124722 -0.0213539 -0.00075589
0.00170075 -0.0149288 0.00170075
0.00113384 0.0020787 0.00340151
0.0126612 0.0117163 0.00321253
0.0243775 0 0.00718096
0.0243775 -0.0164406 0.00510226
0.0120942 0.0372276 -0.00170075
0.020598 -0.00434637 0.0451645
0.00396842 -0.0128501 0.020409
-0.00850377 0.00850377 0.00907068
-0.0109604 0.00529123 0.0170075
-0.0156847 0.00113384 0.000188973
-0.0160627 -0.00264562 0.000566918
-0.000944863 0.0134171 0.0328812
0.000944863 0.0154958 0.0268341
-0.00850377 0.0109604 0.00283459
-0.0173855 0.00359048 -0.0100155
-0.0287238 0.00774788 -0.0164406
0.00925966 0.0166296 -0.00113384
-0.0241885 -0.000944863 0.0177634
0.000944863 -0.0221098 -0.0536682
-0.0291018 0.00188973 0.0241885
0.00510226 -0.0357158 -0.0132281
-0.00566918 -0.0279679 0.00718096
-0.0393063 0.0377945 -0.0372276
-0.0255113 0.0266451 -0.0544241
-0.00699199 -0.0211649 0.00113384
-0.00850377 0.00869274 0.00359048
0.0330702 0.00453534 0.0100155
0.034204 -0.0247554 0.00642507
0.0128501 0.0440306 -0.00321253
-0.00472431 0.0438416 -0.00302356
0.0268341 0.0453534 -0.00359048
0.0364717 -0.0177634 0.0746442
0.00188973 -0.0257003 0.0572587
0.0515895 0.0257003 0.0315584
0.00566918 0.0171965 0.0495108
0.0096376 0.0213539 0.0400622
-0.00850377 0.0128501 -0.00453534
-0.0236216 0.000188973 -0.0268341
-0.0291018 0.0120942 -0.0173855
Vibration 12
-0.00321253 -0.00793685 -0.0143619
-0.00283459 -0.00944863 -0.0239995
-0.00113384 -0.0105825 -0.00888171
0.000188973 -0.0096376 0.00944863
0.000377945 -0.00699199 0.0175745
-0.00151178 -0.00604712 0.00396842
0.000566918 -0.00699199 0.0391173
-0.00170075 -0.00396842 0.0160627
-0.00170075 -0.00151178 0.0300466
-0.00491329 -0.00718096 -0.013606
-0.000566918 -0.0166296 -0.00283459
-0.000188973 -0.0166296 0.00566918
-0.00604712 -0.00718096 0.00245664
-0.0122832 0.00302356 -0.00925966
-0.0107714 0.00132281 -0.0166296
-0.0041574 -0.00850377 0.0134171
-0.00132281 -0.00850377 -0.0062361
-0.00812582 -0.0041574 -0.00510226
-0.00850377 0.00302356 -0.000377945
-0.00151178 0.00529123 0.00377945
0.00566918 0 0.00396842
0.00566918 -0.00680301 -0.00132281
-0.00188973 0.013984 0.00850377
-0.00812582 0.00151178 0.0126612
0.0187083 0.0105825 0.0222988
0.00132281 0.0187083 -0.0102045
0.0188973 -0.000377945 -0.0164406
0.0190862 0.0141729 0.0128501
0.0041574 0.0308025 -0.00491329
0.00170075 -0.0236216 -0.0383614
-0.00170075 -0.0336371 -0.0126612
0.0113384 -0.0187083 0.0376055
0.0171965 0.00510226 0.048566
-0.0359048 0.0627389 -0.0661404
-0.089762 -0.0538572 0.048188
0.110927 0.0746442 -0.0668963
-0.00396842 -0.0105825 -0.0394953
0.0651955 0.0402512 -0.0582036
0.00340151 -0.0247554 -0.00113384
0.00491329 -0.0239995 0.0145509
-0.0171965 0.0113384 -0.0119053
-0.0130391 0.00680301 -0.0228657
-0.013606 -0.00604712 -0.00774788
-0.0143619 0.00680301 0.000188973
0.0111494 0.00113384 0.00774788
0.0117163 -0.0107714 -0.00151178
-0.0062361 0.020409 0.00925966
-0.00472431 0.013606 0.00642507
0.00472431 0.0151178 0.013795
-0.00264562 -0.00377945 0.0253223
-0.0103935 -0.00226767 -0.00170075
-0.0132281 0.0173855 0.0153068
-0.00245664 -0.0360938 -0.0736993
-0.0126612 -0.0498888 -0.0292908
0.0120942 -0.0258892 0.0674632
0.020409 0.0158737 0.0808803
-0.0391173 0.0716206 -0.0723765
Vibration 13
-0.00869274 -0.00434637 -0.0304246
-0.00869274 -0.00944863 -0.034582
-0.00453534 -0.0120942 -0.00548021
-0.00132281 -0.0103935 0.0222988
-0.00132281 -0.0041574 0.0179524
-0.00510226 -0.00151178 -0.0102045
0.00812582 0.000944863 0.0372276
-0.00472431 0.00264562 -0.0194642
-0.00434637 0.00510226 -0.0317474
-0.00529123 -0.00642507 -0.0266451
-0.0228657 -0.00585815 -0.0311805
-0.00604712 -0.0147399 -0.0062361
0.0264562 -0.0222988 0.020409
0.0432747 -0.0217318 0.0239995
0.0268341 -0.0141729 0.000377945
0.0476211 -0.034393 0.0515895
-0.00491329 -0.0134171 0
-0.0100155 -0.00982658 0.000188973
-0.0103935 -0.00151178 0.000377945
-0.00529123 0.0020787 0.000944863
0.000188973 -0.00585815 0.00566918
0.000377945 -0.0134171 0.00491329
-0.00566918 0.0164406 -0.00396842
-0.0574477 0.0349599 -0.0306136
0.0141729 0.00340151 0.034771
0.00907068 0.0200311 -0.013984
-0.00264562 0.00812582 0.00396842
-0.00321253 0.0117163 0.0102045
0.00510226 0.0113384 0.0228657
-0.00566918 0.00264562 0.000566918
-0.013795 -0.000566918 -0.00548021
-0.0171965 0.00226767 -0.00321253
-0.0107714 0.00869274 0.00661404
0.00245664 0.0128501 0.0257003
0.0332592 0.0270231 -0.027779
0.00075589 0.0173855 -0.0113384
-0.0124722 -0.0124722 -0.0557469
-0.0113384 0.0171965 0.00075589
-0.0500777 0.00113384 -0.0534792
-0.0183303 -0.0151178 -0.00831479
0.0718096 -0.0294797 0.0474321
0.0406291 -0.0143619 0.00359048
-0.013984 -0.0122832 -0.000377945
-0.0145509 0.00264562 -0.000944863
0.00434637 -0.00548021 0.00888171
0.00491329 -0.0187083 0.00699199
-0.00377945 0.0194642 -0.00529123
-0.0160627 0.020787 -0.00453534
0.0020787 0.0213539 -0.00642507
-0.0738883 0.0410071 -0.0326923
-0.0228657 0.068786 -0.125478
-0.148155 0.0430858 0.0107714
-0.00170075 0.00075589 -0.000188973
-0.0177634 -0.00434637 -0.0113384
-0.0249444 -0.000377945 -0.00812582
-0.0115273 0.0107714 0.0113384
0.00850377 0.0105825 0.0376055
Vibration 14
-0.00188973 0.0041574 -0.00793685
-0.00226767 0.00377945 0.0153068
-0.0020787 0.00359048 0.0124722
-0.00132281 0.00434637 -0.00396842
-0.00075589 0.00321253 -0.0230547
-0.00075589 0.00340151 -0.0296687
-0.00793685 -0.000377945 -0.0325033
0.000566918 0.00774788 -0.0610381
0.00113384 0.0117163 -0.0935414
-0.000944863 0.00377945 -0.00736993
-0.00869274 0.0075589 -0.0128501
-0.00264562 0.00453534 -0.00661404
0.0117163 -0.00132281 0.00472431
0.0185193 -0.00396842 0.00925966
0.0119053 -0.000566918 0.00283459
0.020409 -0.0062361 0.013795
-0.0020787 -0.00151178 0.0175745
0.00377945 -0.00510226 0.0160627
0.00434637 -0.00699199 0.0062361
-0.0020787 -0.00453534 -0.00245664
-0.00850377 -0.0062361 0.00472431
-0.00831479 -0.00472431 0.0149288
-0.0020787 0.00075589 -0.0226767
-0.0128501 0.013795 -0.0128501
-0.0181414 -0.00774788 -0.0258892
0.00907068 -0.00642507 0.0606602
0.0113384 0.00075589 0.0353379
-0.00566918 -0.00925966 -0.00585815
-0.0134171 -0.0141729 -0.0179524
0.0243775 0.0145509 0.0536682
0.0192752 0.0179524 0.0302356
-0.0041574 0.00869274 -0.0221098
-0.0166296 -0.00548021 -0.0408181
-0.0117163 -0.0143619 -0.0221098
-0.0489439 -0.0251334 0.0944863
0.0478101 0.0122832 0.0423299
-0.00321253 0.00377945 0.0332592
0.0359048 -0.0105825 0.0423299
-0.0194642 0.0128501 -0.0211649
-0.00907068 0.00680301 -0.0102045
0.0302356 -0.0096376 0.0183303
0.0177634 -0.0020787 0.00510226
0.00869274 -0.00566918 0.020976
0.0096376 -0.00869274 0.00377945
-0.013606 -0.00736993 0.00132281
-0.013606 -0.00491329 0.0192752
0.0115273 -0.00491329 -0.0270231
-0.0141729 0.00699199 -0.0219208
-0.00359048 0.00548021 -0.0359048
-0.0177634 0.0162516 -0.0154958
-0.0020787 0.0243775 -0.041574
-0.041574 0.0145509 0.000188973
0.0383614 0.0230547 0.089762
0.0319364 0.02759 0.0495108
-0.0119053 0.0115273 -0.048377
-0.0338261 -0.0130391 -0.0818251
-0.0177634 -0.0119053 -0.034204
Vibration 15
-0.0105825 0.0115273 0.00434637
-0.00944863 -0.00321253 0.00283459
0.00396842 -0.0119053 -0.00377945
0.0164406 -0.00377945 -0.0251334
0.0175745 0.00925966 -0.0224877
0.00264562 0.0170075 0.00302356
0.020787 0.0105825 -0.0370386
0.00359048 0.0457314 0.0417629
0.00699199 0.0852266 0.0878723
-0.0149288 0.0145509 0.0041574
-0.0190862 0.0239995 -0.00680301
-0.00321253 0.0154958 -0.00377945
0.0156847 -0.00151178 0.0096376
0.013606 -0.0075589 0.0151178
-0.00151178 0.00151178 0.0126612
0.0428968 -0.0154958 0.0196532
0.00434637 -0.0238105 0.0124722
-0.00075589 -0.0260782 0.0196532
-0.00113384 -0.013606 0.0149288
0.0041574 0.00151178 0.00264562
0.00944863 -0.0102045 0.0115273
0.00944863 -0.0230547 0.0166296
0.00321253 0.0357158 -0.0243775
-0.0158737 0.00548021 -0.0321253
-0.00170075 0.00188973 -0.0317474
-0.0239995 -0.0247554 -0.0115273
-0.0062361 -0.00944863 -0.0117163
-0.00642507 -0.0124722 -0.0181414
-0.0111494 -0.00718096 -0.0253223
0.00396842 -0.00340151 0.0041574
0.0175745 -0.000188973 0.0200311
0.0170075 -0.00321253 0.0122832
0.00264562 -0.00982658 -0.00925966
-0.0166296 -0.00359048 -0.0219208
-0.0289128 -0.0372276 -0.00793685
-0.0332592 -0.0239995 -0.00982658
-0.0200311 -0.00925966 0.00831479
-0.0226767 -0.0111494 -0.0117163
-0.0334482 0.0379835 -0.0166296
-0.00510226 0.0213539 -0.0103935
0.0262672 -0.020787 0.0238105
-0.00151178 -0.00321253 0.0175745