[Molden Format]
[FREQ]
-453.7
17.0
20.8
25.4
27.3
28.2
35.0
41.6
44.6
51.6
61.0
74.7
85.6
101.9
114.3
120.6
135.8
156.9
163.4
181.5
195.3
208.9
226.9
239.5
246.8
257.0
284.2
297.8
304.5
315.3
322.9
342.8
350.1
355.0
357.3
383.7
403.5
417.6
452.6
461.8
488.1
508.0
517.7
523.1
536.4
544.4
554.3
566.4
583.4
601.1
607.2
614.5
616.7
632.4
644.4
671.9
691.3
699.3
714.3
728.3
746.5
778.9
793.8
810.8
814.9
837.7
842.3
855.9
880.8
882.3
886.5
896.2
900.7
944.3
965.2
973.6
994.2
1004.3
1007.8
1009.0
1010.2
1017.2
1017.5
1032.0
1040.0
1047.2
1070.9
1075.5
1081.5
1092.0
1111.6
1125.9
1149.3
1165.2
1178.4
1183.0
1184.9
1192.0
1202.3
1212.8
1218.2
1230.0
1254.9
1261.5
1268.8
1279.7
1282.2
1286.5
1287.0
1299.3
1307.2
1315.6
1317.2
1332.6
1339.8
1346.3
1348.4
1355.3
1356.2
1366.1
1382.0
1386.7
1394.3
1427.2
1483.2
1512.7
1521.3
1529.0
1541.3
1546.9
1553.2
1594.5
1600.3
1636.1
1674.7
1696.8
1699.1
1706.8
1707.8
1708.7
1713.1
1837.2
1872.6
2443.3
2651.7
2653.9
2667.7
2672.4
2718.5
2726.7
2736.5
2743.9
2744.8
2744.9
2747.2
2748.2
2748.6
2754.3
2757.2
2762.7
2764.6
2765.9
2766.6
2769.7
2779.3
       
[FR-COORD]
C -0.670853 -3.79665 0.0774788
C 1.957 -3.79665 0.0774788
C 3.26242 -1.47795 0.0774788
N 2.04676 0.760048 0.0253223
C -0.514194 0.774032 -0.0132281
C -1.97439 -1.47569 0.0427078
N -1.5475 3.20157 0.0778567
C -4.63455 -1.36854 0.0527234
N -6.81964 -1.20224 0.0854156
C -2.05016 -6.1966 0.0986437
C -1.65956 -7.93987 -1.85873
C -2.95496 -10.2126 -1.8765
C -4.64589 -10.7389 0.105258
C -5.04103 -9.03402 2.07813
C -3.73183 -6.75256 2.05262
O -5.77803 -13.0251 -0.140029
C 6.0373 -1.3538 0.0786126
C 7.45251 -3.11937 1.44413
C 10.0756 -2.99351 1.42448
C 11.3081 -1.10549 0.0423299
C 9.8912 0.664995 -1.30788
C 7.2643 0.549154 -1.28407
C 14.1221 -1.00099 0.0328812
C -7.60747 -13.7015 1.70756
C -4.03041 5.59 -2.25803
C -4.70145 7.98315 -0.991539
C -2.44587 9.103 0.244342
C -0.206547 7.73257 -0.110549
C -0.466195 5.43769 -1.7153
C -2.44115 11.3136 1.65143
C -0.169886 12.1288 2.72876
C 2.04487 10.7446 2.39353
C 2.04601 8.52059 0.962248
O 0.727545 4.78649 -3.52377
O -6.77316 8.92366 -0.975855
O -4.21239 3.25751 -0.856424
H 2.99786 -5.5694 0.068975
H -5.15272 3.70424 0.858314
H -0.34204 -7.48955 -3.38204
H -2.69721 -11.585 -3.38431
H -6.34419 -9.44428 3.60598
H -4.02455 -5.39441 3.57725
H 6.50444 -4.58221 2.5413
H 11.1762 -4.36432 2.48839
H 10.8355 2.14276 -2.38011
H 6.1452 1.94736 -2.32342
H 14.8735 -0.7026 1.94906
H 14.8708 0.527611 -1.155
H 14.9447 -2.77487 -0.675199
H -8.2375 -15.5626 1.03462
H -9.1852 -12.3632 1.7119
H -6.74141 -13.8649 3.57801
H -4.1814 12.3877 1.9073
H -0.137761 13.8593 3.84087
H 3.79873 11.3962 3.25222
H 3.77435 7.42795 0.699766
H -4.55575 5.1873 -4.17705

[FR-NORM-COORD]
Vibration 1
0.000944863 -0.00699199 -0.00529123
-0.000188973 -0.000566918 -0.00170075
-0.00680301 0.00472431 0.00170075
-0.0120942 0.00359048 0.0145509
-0.0149288 -0.0105825 0.0096376
-0.00510226 -0.0141729 -0.00793685
-0.0249444 -0.0188973 0.118297
-0.00491329 -0.0100155 -0.00396842
-0.00434637 0.000944863 0
0.000566918 -0.00472431 -0.000566918
0 -0.00264562 -0.00151178
-0.00075589 -0.0020787 -0.00075589
-0.000377945 -0.000566918 -0.000377945
-0.000566918 -0.000944863 -0.000188973
0.000566918 -0.00151178 -0.000188973
-0.000566918 -0.00075589 -0.000188973
-0.00434637 0.00283459 0.000566918
-0.00264562 0.00170075 -0.000944863
-0.00245664 0.000566918 -0.00075589
-0.00188973 0.000566918 -0.000566918
-0.00226767 0.000377945 -0.000188973
-0.00302356 0.0020787 0.00075589
-0.00132281 0.000188973 -0.000188973
-0.000188973 -0.000377945 -0.000188973
0.365662 0.0587705 -0.0570697
0.0496998 0.0393063 0.0192752
0.000188973 0.0442196 0.0192752
-0.0128501 0.0130391 -0.0096376
-0.3016 0.125856 -0.193697
0.00151178 0.0317474 0.0230547
0.0143619 0.00718096 0.0109604
0.000188973 -0.0124722 -0.00377945
-0.0113384 -0.0151178 -0.0128501
-0.0020787 0.00075589 0.00434637
0.00075589 -0.0795575 -0.0096376
0.00850377 -0.0920297 0.0519675
0.00245664 0.00113384 -0.00075589
-0.0927855 -0.0842818 -0.0461093
0.00075589 -0.00245664 -0.00113384
-0.00132281 -0.00264562 -0.000188973
-0.000566918 -0.000566918 -0.000377945
0.0020787 -0.00132281 -0.000566918
-0.00170075 0.00132281 -0.00132281
-0.00302356 0.000566918 -0.00132281
-0.00321253 0.00075589 -0.000377945
-0.00793685 0.00699199 0.0041574
-0.00151178 0.000188973 -0.000377945
-0.00151178 0.000188973 -0.000188973
-0.00170075 0.000377945 -0.000188973
-0.000377945 -0.000377945 0.000566918
0 -0.000188973 0
0.000188973 0 -0.000188973
0.0109604 0.0402512 0.0340151
0.0340151 0.00472431 0.0120942
0.00774788 -0.0239995 -0.00869274
-0.020976 -0.0270231 -0.0321253
-0.117919 0.0234326 0.0457314
Vibration 2
-0.00434637 -0.000566918 0.00283459
-0.00434637 0.00170075 0.00283459
-0.00642507 0.00283459 0.00453534
-0.00812582 0.00170075 0.00377945
-0.00831479 -0.000566918 0.00604712
-0.00642507 -0.00151178 0.00736993
-0.0075589 0 0.00566918
-0.00642507 -0.00396842 0.0120942
-0.00661404 -0.00661404 0.0168186
-0.00151178 -0.00226767 -0.00396842
-0.000188973 0.00566918 -0.0107714
0.00340151 0.00377945 -0.0183303
0.00585815 -0.00642507 -0.0188973
0.00434637 -0.0141729 -0.0124722
0.000566918 -0.0119053 -0.00491329
0.00982658 -0.0075589 -0.0264562
-0.00642507 0.00548021 0.00982658
-0.00869274 0.0134171 0.0221098
-0.00869274 0.0171965 0.0306136
-0.00699199 0.0130391 0.0264562
-0.00491329 0.00434637 0.0130391
-0.00491329 0.000566918 0.00472431
-0.00699199 0.0175745 0.0359048
0.0117163 -0.0171965 -0.0281569
-0.0285349 0.000188973 0.0292908
-0.00529123 0.00188973 0.0376055
0.0158737 0.00283459 -0.00132281
0.0075589 -0.0041574 -0.0260782
-0.0190862 -0.0105825 -0.0119053
0.041574 0.0100155 -0.0128501
0.0589595 0.0105825 -0.0498888
0.0508336 0.00321253 -0.0738883
0.0247554 -0.00434637 -0.061983
-0.0442196 -0.0215429 -0.0247554
-0.00491329 0.00245664 0.0731324
-0.0158737 0.000377945 0.0296687
-0.00245664 0.00283459 0.00113384
-0.000188973 0.000377945 0.0383614
-0.0020787 0.0134171 -0.0100155
0.00453534 0.00982658 -0.0236216
0.00604712 -0.0219208 -0.0130391
-0.000566918 -0.0179524 0.000188973
-0.0103935 0.0170075 0.0255113
-0.0103935 0.0238105 0.0406291
-0.00340151 0.00075589 0.00925966
-0.00340151 -0.00604712 -0.00548021
-0.013606 0.0154958 0.0387394
-0.00548021 0.020598 0.0408181
-0.00226767 0.0198421 0.0357158
0.0143619 -0.0156847 -0.034771
0.0096376 -0.0198421 -0.0222988
0.0128501 -0.0228657 -0.0291018
0.0476211 0.0154958 0.00699199
0.0791795 0.0164406 -0.0597153
0.0646286 0.00340151 -0.102234
0.0181414 -0.0103935 -0.0805023
-0.0508336 0.00264562 0.0349599
Vibration 3
0.00529123 -0.000188973 0.0154958
0.00510226 -0.0020787 0.00604712
0.00661404 -0.00283459 0.0128501
0.0075589 -0.00188973 0.0221098
0.0075589 -0.000188973 0.02759
0.00642507 0.000566918 0.0311805
0.00699199 0.000188973 0.0245664
0.00661404 0.00113384 0.0519675
0.00680301 0.00132281 0.0708647
0.00245664 0.00113384 0.00491329
-0.0241885 0.0253223 -0.0217318
-0.0304246 0.0289128 -0.0359048
-0.00907068 0.00831479 -0.0230547
0.0190862 -0.0164406 0.00396842
0.0243775 -0.0192752 0.0177634
-0.0192752 0.0151178 -0.0404401
0.00661404 -0.00472431 0.00736993
0.00888171 -0.0171965 -0.0109604
0.00888171 -0.0200311 -0.0177634
0.00699199 -0.0102045 -0.00604712
0.00491329 0.00245664 0.0126612
0.00491329 0.00510226 0.0192752
0.00699199 -0.0132281 -0.0134171
-0.000944863 -0.00321253 -0.0287238
0.00548021 -0.0196532 0.00340151
-0.00340151 -0.0102045 -0.0196532
-0.0096376 0.00359048 -0.020598
-0.00585815 0.00510226 -0.00264562
0.00434637 -0.00718096 0.0130391
-0.0185193 0.0151178 -0.0389284
-0.0236216 0.0287238 -0.0385504
-0.0198421 0.0302356 -0.0202201
-0.0109604 0.0183303 -0.00188973
0.0109604 -0.0153068 0.0202201
-0.00472431 -0.0126612 -0.0360938
0.00680301 -0.0075589 0.0236216
0.00359048 -0.00283459 -0.00680301
0.00718096 0.00661404 0.0202201
-0.0404401 0.041385 -0.0309915
-0.0517785 0.0476211 -0.0565028
0.0362827 -0.0330702 0.0141729
0.0455424 -0.0377945 0.0383614
0.0105825 -0.0251334 -0.0200311
0.0105825 -0.0298577 -0.0321253
0.00340151 0.0102045 0.0221098
0.00321253 0.0145509 0.0336371
0.0119053 -0.0143619 -0.0151178
0.00548021 -0.013606 -0.0149288
0.00377945 -0.013795 -0.0158737
-0.0162516 0.00888171 -0.0474321
0.00453534 0.00321253 0.00812582
0.0200311 -0.0326923 -0.041196
-0.0215429 0.013795 -0.0531013
-0.0304246 0.0379835 -0.0527234
-0.0238105 0.0406291 -0.0200311
-0.00774788 0.0198421 0.0124722
0.0107714 -0.0376055 0.00566918
Vibration 4
-0.00661404 0.00132281 -0.0211649
-0.00699199 -0.00151178 -0.0251334
-0.00472431 -0.00245664 -0.0177634
-0.00359048 -0.00151178 -0.0141729
-0.00359048 0.00075589 -0.0145509
-0.00529123 0.00188973 -0.0158737
-0.00132281 0.00132281 -0.0111494
-0.00529123 0.00264562 -0.0096376
-0.00510226 0.00283459 -0.0041574
-0.00850377 0.0020787 -0.0162516
-0.0462983 0.0170075 -0.0366607
-0.0434637 0.0151178 -0.0253223
-0.000944863 -0.00132281 0.00661404
0.034582 -0.0141729 0.0247554
0.0298577 -0.0115273 0.0128501
0.000566918 -0.00321253 0.0164406
-0.00491329 -0.00302356 -0.00812582
-0.00944863 -0.0190862 -0.0239995
-0.0096376 -0.0164406 -0.00944863
-0.00453534 0.00264562 0.0213539
0.000377945 0.0175745 0.0357158
0.000566918 0.0143619 0.020787
-0.00472431 0.00718096 0.0389284
0.0498888 -0.0247554 0.0574477
0.00151178 0.00850377 -0.00642507
0.00434637 0.00680301 -0.00151178
0.00510226 0.00075589 0.00245664
0.00359048 -0.000566918 -0.00075589
0.00113384 0.00377945 -0.00661404
0.00718096 -0.00340151 0.00907068
0.00774788 -0.00907068 0.0122832
0.00642507 -0.0105825 0.00869274
0.00434637 -0.0062361 0.0020787
0.000566918 0.00642507 -0.00793685
0.00585815 0.0102045 -0.00151178
-0.00113384 0.00566918 -0.0113384
-0.00925966 -0.00264562 -0.0321253
-0.000944863 0.00283459 -0.0105825
-0.0776677 0.0292908 -0.0599043
-0.0727545 0.0258892 -0.0400622
0.0655735 -0.0258892 0.0478101
0.0572587 -0.020598 0.0260782
-0.0130391 -0.034204 -0.0468652
-0.013606 -0.0291018 -0.0215429
0.00434637 0.0319364 0.0589595
0.00434637 0.0257003 0.0317474
-0.0171965 -0.00434637 0.0457314
0.000188973 0.0162516 0.0538572
0.00283459 0.0132281 0.0323143
0.0438416 -0.0241885 0.0614161
0.0425188 -0.0336371 0.104313
0.096565 -0.0313695 0.0351489
0.00831479 -0.0020787 0.0117163
0.00944863 -0.0124722 0.0173855
0.00680301 -0.0151178 0.0111494
0.00321253 -0.00736993 -0.00075589
0.000944863 0.0130391 -0.00718096
Vibration 5
-0.0153068 0.0109604 0.00188973
-0.0153068 0.00812582 0.00548021
-0.0124722 0.0062361 0.00869274
-0.00850377 0.00793685 0.00925966
-0.00869274 0.0109604 0.00774788
-0.0120942 0.0126612 0.00453534
-0.00510226 0.0126612 0.0075589
-0.0119053 0.0166296 0.00472431
-0.0115273 0.0196532 0.00548021
-0.0115273 0.00869274 -0.00548021
0.00340151 0.0117163 -0.00548021
0.0224877 0.000944863 -0.00566918
0.0268341 -0.0132281 -0.00566918
0.00642507 -0.0130391 -0.0100155
-0.0128501 -0.00170075 -0.0100155
0.0529123 -0.0264562 -0.00188973
-0.0120942 -0.00359048 0.00774788
-0.020598 0.00642507 0.0296687
-0.0200311 -0.0103935 0.0222988
-0.0113384 -0.0379835 -0.00774788
-0.00302356 -0.0464873 -0.0272121
-0.00377945 -0.0285349 -0.0190862
-0.0103935 -0.0597153 -0.0198421
0.069164 -0.0495108 0.00566918
0.00188973 0.0130391 -0.000188973
0.00226767 0.0173855 -0.00812582
0.000377945 0.0158737 -0.00359048
-0.00075589 0.0120942 0.00434637
0 0.0103935 0.00661404
0 0.0183303 -0.00718096
-0.00170075 0.0168186 -0.00264562
-0.00283459 0.0128501 0.00529123
-0.00226767 0.0105825 0.00907068
0.00283459 0.00699199 0.00982658
0.00434637 0.0221098 -0.0181414
-0.00434637 0.0166296 0.00510226
-0.0168186 0.00699199 0.00510226
-0.00434637 0.0228657 0.00359048
0.00132281 0.0219208 -0.0041574
0.0357158 0.00226767 -0.00453534
0.00604712 -0.0219208 -0.0126612
-0.0279679 -0.00226767 -0.0124722
-0.0281569 0.0279679 0.0517785
-0.0262672 -0.00245664 0.0389284
0.00396842 -0.0670853 -0.0495108
0.00245664 -0.034771 -0.0338261
0.00170075 -0.0723765 -0.0228657
-0.00396842 -0.061983 -0.0185193
-0.0287238 -0.0642507 -0.0298577
0.0954312 -0.0610381 0.0124722
0.0487549 -0.0735103 0.00699199
0.0771008 -0.0315584 0.00359048
0.000944863 0.0213539 -0.013606
-0.00188973 0.0185193 -0.00548021
-0.00396842 0.0117163 0.00888171
-0.00321253 0.0075589 0.0151178
0.00491329 0.00869274 -0.000188973
Vibration 6
0.0124722 0.000188973 -0.00245664
0.0120942 0.00113384 -0.00113384
0.0096376 0.00264562 -0.00642507
0.00982658 0.0020787 -0.013606
0.00925966 0.000377945 -0.0113384
0.0113384 -0.000566918 -0.0062361
0.00566918 -0.00170075 -0.0109604
0.0109604 -0.00510226 -0.00377945
0.0107714 -0.00982658 -0.00151178
0.00944863 0.00188973 0
-0.0226767 0.0158737 -0.0185193
-0.0336371 0.0219208 -0.0202201
-0.0109604 0.0143619 -0.00283459
0.0241885 -0.000944863 0.0173855
0.0338261 -0.00642507 0.0185193
-0.02759 0.0230547 -0.00831479
0.0100155 0.00075589 -0.00226767
0.0020787 0.0362827 0.0515895
0.00226767 0.0325033 0.0576366
0.00944863 -0.00812582 0.00831479
0.0166296 -0.0438416 -0.0461093
0.0162516 -0.0383614 -0.0506447
0.00982658 -0.013795 0.0134171
-0.00869274 0.0183303 0.00850377
-0.00604712 -0.00377945 -0.000377945
-0.0107714 -0.00907068 0.00736993
-0.0117163 -0.00699199 0.00699199
-0.00831479 0.00113384 -0.00283459
-0.00491329 0.00548021 -0.00944863
-0.0158737 -0.0126612 0.0160627
-0.0162516 -0.0103935 0.0153068
-0.0126612 -0.00226767 0.00529123
-0.00850377 0.00377945 -0.00396842
-0.00736993 0.0126612 -0.013606
-0.0132281 -0.0149288 0.0132281
0.00340151 -0.00736993 -0.00472431
0.013984 0.00226767 0.00377945
0.00566918 -0.0134171 -0.00188973
-0.0398732 0.0221098 -0.0315584
-0.0597153 0.0330702 -0.034771
0.0430858 -0.00793685 0.0315584
0.0600933 -0.0170075 0.0328812
-0.00472431 0.0684081 0.0884392
-0.00321253 0.0610381 0.100155
0.0224877 -0.075778 -0.0848487
0.0215429 -0.0646286 -0.0908958
0.00793685 -0.00245664 0.0120942
0.0153068 -0.0238105 0.00396842
0.0062361 -0.020976 0.0266451
-0.0304246 0.0291018 -0.00132281
0.000566918 0.0292908 0.041574
0.0141729 -0.00566918 -0.0041574
-0.0185193 -0.0190862 0.0236216
-0.0194642 -0.0149288 0.0226767
-0.0130391 -0.000377945 0.00472431
-0.00566918 0.0100155 -0.0117163
-0.00982658 -0.00113384 0
Vibration 7
-0.00888171 -0.00510226 0.0156847
-0.00869274 -0.00340151 0.0153068
-0.0107714 -0.00245664 0.00982658
-0.0130391 -0.00396842 0.00812582
-0.0128501 -0.00566918 0.0100155
-0.0111494 -0.0062361 0.0153068
-0.00944863 -0.0041574 0.00226767
-0.0111494 -0.00434637 0.020787
-0.0107714 -0.00075589 0.0258892
-0.00736993 -0.0062361 0.0107714
-0.0128501 0.00491329 -0.000377945
-0.0119053 0.00434637 -0.00869274
-0.00472431 -0.0075589 -0.00585815
0.00113384 -0.0188973 0.00510226
-0.000377945 -0.0175745 0.0132281
-0.00453534 -0.00661404 -0.0153068
-0.0111494 0.00718096 0.000377945
0.00132281 0.0306136 0.0170075
0.000566918 0.047999 0.0119053
-0.013606 0.0408181 -0.0103935
-0.0266451 0.0154958 -0.0298577
-0.0257003 -0.000944863 -0.0243775
-0.0143619 0.0616051 -0.0132281
0.00302356 -0.0192752 -0.0124722
0.0153068 0.00302356 -0.0154958
0.0238105 0.0102045 -0.0243775
0.0221098 -0.00434637 -0.0075589
0.0166296 -0.0160627 0.00377945
0.0109604 -0.013795 0.00188973
0.0264562 -0.00718096 -0.00302356
0.0243775 -0.0230547 0.0132281
0.0187083 -0.0349599 0.0241885
0.0147399 -0.0317474 0.0190862
0.0156847 -0.0226767 0.00812582
0.0317474 0.0279679 -0.0461093
-0.00340151 0.00472431 -0.013606
-0.00680301 -0.00226767 0.0175745
-0.0117163 0.0105825 -0.0198421
-0.0181414 0.013984 -0.0020787
-0.0164406 0.0130391 -0.0173855
0.00680301 -0.0281569 0.00736993
0.00377945 -0.0260782 0.0213539
0.0117163 0.0366607 0.0338261
0.0109604 0.0670853 0.0258892
-0.0376055 0.00907068 -0.0487549
-0.0362827 -0.0196532 -0.0383614
-0.0158737 0.0939194 -0.0177634
-0.0262672 0.0506447 -0.0349599
-0.00113384 0.0580146 0.0111494
0.00151178 -0.0154958 -0.0217318
0.00226767 -0.0202201 0.00188973
0.0103935 -0.0302356 -0.0170075
0.0311805 0.00264562 -0.0119053
0.027401 -0.0257003 0.0173855
0.0170075 -0.0470542 0.0366607
0.00982658 -0.041385 0.02759
0.0215429 0.00245664 -0.0171965
Vibration 8
-0.00188973 0.00226767 -0.0154958
-0.00132281 -0.000377945 -0.0432747
0.0020787 -0.00264562 -0.0438416
0.00585815 -0.000566918 -0.041385
0.00548021 0.00283459 -0.0177634
0.00226767 0.00491329 0.00907068
0.00793685 0.00321253 -0.0154958
0.00302356 0.0154958 0.0723765
0.00472431 0.0291018 0.13247
-0.00113384 0.00226767 -0.00925966
0.020787 -0.0132281 0.00831479
0.0257003 -0.0158737 0.013606
0.00661404 -0.00340151 0.00075589
-0.0164406 0.0120942 -0.0171965
-0.0196532 0.013606 -0.0217318
0.0141729 -0.00774788 0.00812582
0.00245664 -0.00774788 -0.0330702
-0.0105825 -0.00718096 -0.0187083
-0.0105825 -0.00491329 0.0100155
0.00245664 -0.00321253 0.0238105
0.0154958 -0.00774788 0.0041574
0.0153068 -0.0100155 -0.0241885
0.00245664 0.00453534 0.062172
-0.00774788 0.00642507 -0.00831479
-0.00604712 0.000188973 -0.00434637
-0.00434637 0.00340151 -0.00888171
-0.00585815 -0.00377945 0.000566918
-0.00472431 0.000944863 -0.0113384
-0.00718096 0.00831479 -0.0219208
-0.0075589 -0.0153068 0.0183303
-0.00774788 -0.0222988 0.0243775
-0.00642507 -0.0170075 0.0115273
-0.00491329 -0.00529123 -0.00680301
-0.0132281 0.0143619 -0.0279679
0 0.0130391 -0.0241885
0.00151178 0.00340151 0.00340151
-0.00340151 -0.00151178 -0.0593374
0.013795 0.00869274 0.00907068
0.034393 -0.0228657 0.0171965
0.0438416 -0.02759 0.027401
-0.0315584 0.0222988 -0.0272121
-0.0364717 0.0238105 -0.0336371
-0.0211649 -0.0075589 -0.0283459
-0.020976 -0.00321253 0.0228657
0.0258892 -0.00850377 0.0122832
0.0251334 -0.0122832 -0.0376055
-0.0264562 0.0292908 0.0697309
0.0147399 -0.00699199 0.055369
0.0183303 -0.00113384 0.0948642
0.00340151 -0.00075589 0.000944863
-0.00982658 0.00396842 -0.0400622
-0.0306136 0.0247554 0.00396842
-0.00812582 -0.0185193 0.0272121
-0.00907068 -0.0319364 0.0394953
-0.00680301 -0.0222988 0.0158737
-0.00396842 -0.00151178 -0.0166296
-0.0170075 -0.00661404 -0.000188973
Vibration 9
-0.00151178 -0.00075589 -0.00491329
-0.00151178 -0.00226767 -0.00453534
-0.000188973 -0.00283459 -0.00151178
0.000944863 -0.0020787 0.00283459
0.000944863 -0.000566918 0.00188973
-0.000188973 0 -0.00340151
0.00170075 -0.000188973 0.0062361
-0.000188973 0.000566918 -0.00812582
-0.000377945 0.000377945 -0.0130391
-0.00245664 -0.000188973 -0.00510226
-0.00264562 -0.00151178 -0.00396842
-0.00170075 -0.0020787 -0.00170075
-0.000377945 -0.00151178 -0.000566918
-0.00132281 0.000377945 -0.00226767
-0.00226767 0.000944863 -0.00453534
0.00151178 -0.00264562 0.00245664
-0.000188973 -0.00434637 -0.00264562
-0.000188973 -0.00642507 -0.00548021
0 -0.00736993 -0.00680301
0 -0.00699199 -0.0062361
-0.000188973 -0.00453534 -0.00283459
-0.000188973 -0.00321253 -0.00132281
-0.000566918 0.00736993 0.0102045
0.00510226 -0.00377945 0.00585815
0.0020787 0 0.00529123
-0.000188973 -0.000566918 0.00491329
-0.000377945 0.00321253 0.00170075
0 0.00321253 0.00529123
0.0020787 0.00075589 0.00812582
-0.00132281 0.00718096 -0.00434637
-0.00151178 0.0113384 -0.00699199
-0.00113384 0.0111494 -0.00302356
-0.000377945 0.00699199 0.00340151
0.00396842 0.00113384 0.00907068
-0.00188973 -0.00453534 0.00812582
0.00188973 0.000377945 0.00548021
-0.00226767 -0.00264562 -0.00642507
0.00151178 0.000566918 0.00529123
-0.00321253 -0.00226767 -0.00472431
-0.00151178 -0.00321253 -0.000566918
-0.00113384 0.00132281 -0.00170075
-0.00283459 0.00226767 -0.00585815
0 -0.00718096 -0.00661404
-0.000188973 -0.00793685 -0.00736993
0 -0.00302356 -0.00075589
-0.000188973 -0.00151178 0.000944863
-0.0496998 0.51325 -0.0476211
0.00736993 -0.290451 -0.368308
0.0394953 -0.162894 0.488494
0.00699199 -0.00529123 0.00869274
0.00321253 -0.00604712 0.00680301
0.00812582 -0.000377945 0.00491329
-0.00188973 0.00718096 -0.00736993
-0.0020787 0.0147399 -0.0122832
-0.00132281 0.0143619 -0.00510226
0.000188973 0.00718096 0.0062361
0.0041574 -0.000188973 0.00472431
Vibration 10
-0.00472431 -0.0107714 -0.0270231
-0.00434637 -0.0151178 -0.0370386
-0.00132281 -0.0173855 -0.0239995
0.00264562 -0.0147399 -0.00188973
0.00302356 -0.00944863 0.0041574
-0.000377945 -0.00774788 -0.0102045
0.00699199 -0.00736993 0.0247554
-0.000377945 -0.00245664 -0.00642507
0 0.00226767 -0.0041574
-0.00925966 -0.00812582 -0.0238105
-0.0075589 -0.0202201 -0.0126612
-0.00812582 -0.020409 -0.000377945
-0.0107714 -0.00831479 0.000566918
-0.0156847 0.00548021 -0.0124722
-0.0149288 0.00472431 -0.0245664
-0.00812582 -0.0113384 0.0158737
-0.00132281 -0.0153068 -0.0253223
0 0.0020787 -0.00472431
-0.000566918 0.0194642 0.0124722
-0.00359048 0.0179524 0.00774788
-0.00548021 -0.00585815 -0.0215429
-0.00472431 -0.0219208 -0.0376055
-0.00434637 0.041574 0.0330702
-0.000188973 -0.00510226 0.0260782
0.0190862 -0.00453534 0.0134171
0.00793685 -0.00510226 0.00831479
0.0041574 0.0100155 0.000944863
0.00529123 0.00548021 0.0247554
0.0158737 -0.00396842 0.0359048
-0.00075589 0.0283459 -0.0281569
-0.00434637 0.0434637 -0.0321253
-0.00377945 0.0379835 -0.00510226
0.000944863 0.0188973 0.0241885
0.0289128 -0.00359048 0.0438416
0.00132281 -0.0196532 0.0151178
0.00982658 -0.00245664 0.0151178
-0.0062361 -0.0162516 -0.0514005
0.00529123 0.00075589 0.0117163
-0.00529123 -0.0302356 -0.013606
-0.00548021 -0.0298577 0.00869274
-0.0198421 0.0164406 -0.0130391
-0.0179524 0.0143619 -0.0336371
0.00132281 0.00434637 -0.00075589
0.00113384 0.0353379 0.0309915
-0.0075589 -0.0103935 -0.0298577
-0.00699199 -0.0377945 -0.0563138
-0.0200311 -0.00566918 0.0464873
-0.00736993 0.0803134 0.0808803
0.013984 0.0672742 -0.0102045
0.00699199 -0.013606 0.0427078
-0.0062361 -0.0124722 0.0190862
0.00510226 0.013795 0.0255113
-0.0020787 0.0311805 -0.0478101
-0.00774788 0.0593374 -0.0565028
-0.00661404 0.0491329 -0.00774788
0.00226767 0.0160627 0.0438416
0.0326923 -0.00548021 0.0100155
Vibration 11
0.0109604 -0.00283459 -0.0222988
0.0107714 -0.00264562 -0.0258892
0.0096376 -0.00188973 -0.00869274
0.00982658 -0.00151178 0.0187083
0.00869274 -0.00188973 0.0222988
0.0102045 -0.00264562 -0.00774788
0.0156847 0 0.0544241
0.0096376 -0.00642507 -0.0349599
0.00888171 -0.0130391 -0.0625499
0.00907068 -0.00151178 -0.020787
0.00377945 -0.00982658 -0.013984
-0.000566918 -0.00774788 -0.00302356
0.000377945 0.00359048 0.00075589
0.00566918 0.0122832 -0.00566918
0.0100155 0.00907068 -0.0164406
-0.00491329 0.00472431 0.0128501
0.0100155 -0.00283459 -0.00907068
0.0075589 -0.00075589 -0.00377945
0.0075589 0.00075589 0.00302356
0.0102045 -0.000188973 0.00396842
0.0124722 -0.00434637 -0.0041574
0.0122832 -0.00548021 -0.0103935
0.0100155 0.00340151 0.0141729
-0.00699199 0.0200311 0.0164406
-0.0355268 -0.0313695 0.0667073
-0.0103935 0.0181414 -0.0141729
-0.0105825 0.00188973 0.00170075
-0.0160627 -0.00510226 -0.00548021
-0.0355268 -0.00850377 0.00245664
0 -0.00170075 0.00699199
0.00472431 -0.0151178 0.0075589
-0.00075589 -0.0221098 -0.000377945
-0.0109604 -0.0173855 -0.0075589
-0.0625499 -0.0217318 -0.0102045
0.0194642 0.0850377 -0.117541
-0.0134171 0.00850377 0.140596
0.0117163 -0.00188973 -0.0400622
0.0542351 0.0659514 0.160816
0.00283459 -0.0183303 -0.0173855
-0.00491329 -0.0141729 0.00226767
0.00661404 0.020976 -0.00264562
0.0147399 0.0156847 -0.0215429
0.00548021 0.000188973 -0.00453534
0.00566918 0.00302356 0.00793685
0.0145509 -0.00642507 -0.00510226
0.0141729 -0.00812582 -0.0154958
0.00321253 -0.00188973 0.0175745
0.0122832 0.00812582 0.0215429
0.0145509 0.00661404 0.0111494
-0.0126612 0.0183303 0.0260782
-0.00283459 0.0247554 0.00944863
-0.00736993 0.0270231 0.0171965
0.00566918 0.00661404 0.00982658
0.0130391 -0.0190862 0.0134171
0.00283459 -0.0311805 -0.000944863
-0.0156847 -0.0238105 -0.0132281
-0.0831479 -0.0980768 0.0916517
Vibration 12
0.00151178 0.000188973 0.0158737
0.0020787 -0.00699199 0.0251334
0.00831479 -0.0103935 0.0170075
0.013795 -0.00699199 0.00869274
0.0143619 0 0.00604712
0.00831479 0.00377945 0.00888171
0.0164406 0.000566918 -0.00283459
0.00869274 0.0115273 0.0020787
0.00925966 0.0200311 -0.00283459
-0.0124722 0.00831479 0.00396842
0.00132281 0.00396842 0.0102045
-0.0107714 0.0111494 -0.00321253
-0.034771 0.0202201 -0.0211649
-0.0580146 0.0292908 -0.0336371
-0.0464873 0.0228657 -0.0211649
-0.0379835 0.0232436 -0.0308025
0.00869274 -0.0100155 0.00944863
0.0185193 -0.00529123 0.00491329
0.0183303 0.00453534 -0.00151178
0.00850377 0.00944863 -0.00359048
-0.00113384 0.00283459 -0.00188973
-0.000377945 -0.00718096 0.00434637
0.00812582 0.0232436 -0.00831479
0.0636838 -0.0436527 0.0451645
-0.00075589 -0.0124722 0.00075589
-0.00321253 -0.013606 0.000566918
-0.00434637 -0.0124722 0.00151178
0.000944863 -0.000377945 -0.013984
0.00396842 -0.000944863 -0.0134171
-0.0103935 -0.0219208 0.0162516
-0.0102045 -0.0171965 0.0122832
-0.00377945 -0.00151178 -0.00831479
0.00188973 0.00680301 -0.0213539
-0.00151178 -0.00151178 -0.0162516
-0.00396842 -0.0153068 0.000188973
0.0124722 -0.00774788 0.00925966
-0.00283459 -0.0096376 0.0351489
0.0187083 -0.00434637 0.0120942
0.0236216 -0.00548021 0.0266451
0.000944863 0.00793685 0.00170075
-0.0857936 0.0423299 -0.0538572
-0.0636838 0.0289128 -0.0296687
0.0266451 -0.00907068 0.00661404
0.0258892 0.00850377 -0.00434637
-0.00944863 0.00585815 -0.00510226
-0.0075589 -0.0115273 0.00585815
0.0100155 0.0232436 -0.00925966
-0.00170075 0.0292908 -0.00661404
0.0154958 0.0287238 -0.0134171
0.0982658 -0.0633058 0.0668963
0.0192752 -0.096376 0.112817
0.145698 -0.0190862 0.00944863
-0.0149288 -0.0328812 0.0302356
-0.0151178 -0.0251334 0.0249444
-0.00321253 0.00340151 -0.0132281
0.00680301 0.0179524 -0.0355268
-0.00793685 -0.0192752 0.00434637
Vibration 13
0.0126612 -0.000188973 -0.034582
0.0122832 0.0132281 -0.0377945
0 0.020787 0.00188973
-0.0105825 0.0145509 0.0230547
-0.0109604 0.000377945 0.00869274
0.00075589 -0.00585815 -0.00850377
-0.0222988 -0.00396842 0.00869274
0.000188973 -0.0164406 0.0120942
0 -0.0247554 0.0351489
0.0158737 -0.00132281 -0.0349599
0.0145509 -0.0166296 -0.020598
0.00321253 -0.0111494 -0.0075589
-0.00529123 0.0113384 -0.00907068
-0.00340151 0.0272121 -0.0222988
0.00774788 0.0194642 -0.0349599
-0.020976 0.0175745 0.00585815
-0.000377945 0.0298577 0.0200311
-0.00680301 0.0292908 0.0258892
-0.0062361 0.0134171 0.0166296
0.000188973 -0.00226767 0.00075589
0.00585815 0.0113384 0.0126612
0.00491329 0.0279679 0.0226767
0.00151178 -0.0381725 -0.0332592
0.0122832 0.0221098 0.0410071
-0.00396842 -0.00245664 -0.00718096
0.00113384 -0.00302356 -0.00359048
0.0041574 -0.00321253 -0.00812582
-0.00075589 -0.0143619 0.00510226
-0.00491329 -0.0160627 0.0102045
0.0109604 0.00283459 -0.0177634
0.0107714 -0.00604712 -0.0103935
0.0041574 -0.0213539 0.00850377
-0.00151178 -0.0257003 0.0153068
-0.00188973 -0.0262672 0.0153068
0 -0.00510226 0.00718096
-0.0143619 -0.00699199 -0.0156847
0.0222988 0.0192752 -0.0634948
-0.0306136 -0.0126612 -0.0228657
0.0213539 -0.0340151 -0.0196532
0.00151178 -0.0234326 0.00340151
-0.0109604 0.0459203 -0.0236216
0.0103935 0.0313695 -0.0447865
-0.0126612 0.0389284 0.0338261
-0.0107714 0.0105825 0.0175745
0.0109604 0.0062361 0.0102045
0.00907068 0.0351489 0.0285349
0.0285349 -0.0304246 -0.0451645
0.00699199 -0.0591484 -0.0566918
-0.0302356 -0.0555579 -0.0268341
0.00888171 0.0151178 0.0638727
0.00699199 0.0160627 0.0572587
0.0430858 0.0379835 0.0281569
0.0158737 0.013795 -0.0294797
0.0154958 -0.00132281 -0.0179524
0.00283459 -0.0298577 0.0171965
-0.00718096 -0.0376055 0.0281569
0.00453534 0.00548021 -0.0107714
Vibration 14
-0.00831479 0.00321253 -0.0228657
-0.00774788 -0.00472431 -0.013984
-0.0020787 -0.00831479 0.0192752
0.00434637 -0.0041574 0.0370386
0.00585815 0.00302356 0.0170075
-0.00132281 0.00699199 -0.00434637
0.00944863 0.00510226 0.00888171
-0.000944863 0.0192752 0.000566918
0.000377945 0.0362827 0.00925966
-0.0164406 0.00774788 -0.0332592
-0.0300466 0.00793685 -0.0355268
-0.0177634 0 -0.0164406
0.00736993 -0.00566918 0.00321253
0.00548021 0.00396842 -0.00548021
-0.00529123 0.00944863 -0.0228657
0.041574 -0.0270231 0.0417629
-0.00226767 -0.00529123 0.0228657
0.00661404 0.00264562 0.0224877
0.00680301 0.0102045 0.0107714
-0.0041574 0.00812582 -0.00188973
-0.0143619 0.00453534 0.00377945
-0.0134171 -0.0020787 0.0166296
-0.00434637 0.0103935 -0.0266451
-0.0224877 0.0222988 -0.00302356
0.0075589 -0.0107714 -0.00642507
0.00321253 -0.0158737 -0.00151178
-0.00151178 -0.0198421 0.0107714
0.00869274 0.00377945 -0.0166296
0.0149288 -0.00510226 -0.00359048
-0.0149288 -0.0377945 0.0387394
-0.0132281 -0.020598 0.0224877
0.00283459 0.0175745 -0.027401
0.0134171 0.0285349 -0.0445975
0.0168186 -0.020598 0.00359048
0.00359048 -0.0149288 -0.00774788
0.0128501 -0.00472431 0.000944863
-0.0119053 -0.00699199 -0.0296687
0.00566918 -0.00188973 -0.00302356
-0.048377 0.0119053 -0.0500777
-0.0243775 -0.00264562 -0.0151178
0.0170075 0.00396842 0.00453534
-0.00170075 0.013795 -0.0258892
0.0141729 0.00264562 0.0289128
0.0151178 0.0162516 0.00982658
-0.0228657 0.00529123 -0.00245664
-0.0215429 -0.00566918 0.020598
0.0128501 0.0149288 -0.034204
-0.0162516 0.00850377 -0.0366607
-0.0096376 0.0096376 -0.0308025
-0.00302356 0.00661404 0.0224877
-0.0200311 0.0257003 -0.089951
-0.0863605 0.0672742 0.0304246
-0.0257003 -0.0627389 0.0699199
-0.0239995 -0.0353379 0.0457314
0.00680301 0.0368497 -0.0496998
0.0247554 0.0542351 -0.076156
0.00944863 -0.0143619 -0.00548021
Vibration 15
-0.0020787 0.0109604 0.00377945
-0.00170075 0.00245664 0.00869274
0.0062361 -0.0020787 0.0100155
0.0120942 0.0020787 0.013606
0.0124722 0.00736993 0.0100155
0.00453534 0.0132281 0.00566918
0.00925966 0.00566918 0.00226767
0.00510226 0.0313695 -0.00340151
0.00718096 0.0602823 -0.0124722
-0.0128501 0.0181414 -0.00585815
-0.0211649 0.0268341 -0.0149288
-0.0128501 0.0222988 -0.0111494
0.00491329 0.0111494 0.000944863
-0.00377945 0.0130391 -0.00264562
-0.0109604 0.0170075 -0.00491329
0.0396842 -0.00850377 0.0230547
0.00699199 -0.00831479 0.00151178
0.0115273 -0.00812582 -0.00302356
0.0117163 -0.00359048 -0.00510226
0.00774788 0.00075589 -0.00264562
0.00359048 -0.00548021 -0.0062361
0.00377945 -0.0100155 -0.00396842
0.00736993 0.0149288 0.00548021
-0.00170075 0.0126612 -0.0102045
-0.0119053 -0.0158737 -0.000377945
-0.00774788 -0.0109604 -0.00850377
0.00321253 0.00774788 -0.0451645
-0.00491329 -0.013795 -0.0130391
-0.00453534 -0.0111494 -0.0149288