[Molden Format]
[FREQ]
-471.7
7.9
23.8
31.8
32.6
35.9
37.8
45.4
48.0
55.9
75.4
77.1
81.0
82.5
88.9
105.9
115.2
129.5
137.0
144.2
148.5
179.3
186.9
198.8
209.8
228.6
251.0
252.3
267.4
300.3
305.4
322.2
328.6
343.8
359.2
360.3
374.0
403.5
422.1
431.4
440.4
472.2
480.4
489.2
492.1
508.2
525.7
538.4
549.5
557.3
571.9
584.4
595.4
597.8
616.6
620.1
629.2
656.5
676.3
704.0
709.8
716.1
743.9
748.7
762.6
784.0
804.2
815.2
822.2
826.8
848.1
879.8
882.5
885.1
900.1
926.8
934.0
952.9
956.4
959.4
998.2
1008.5
1008.8
1015.2
1026.0
1031.8
1040.2
1043.6
1070.8
1072.5
1080.1
1091.3
1111.2
1129.8
1148.6
1163.1
1177.1
1181.5
1182.0
1185.9
1203.5
1217.5
1229.2
1238.5
1264.3
1267.8
1273.4
1280.8
1287.3
1297.8
1301.1
1315.0
1322.5
1328.0
1332.3
1341.8
1344.5
1352.9
1357.1
1371.0
1378.9
1384.6
1391.5
1410.7
1433.9
1456.8
1483.2
1510.2
1520.1
1530.8
1538.1
1570.8
1585.6
1601.6
1619.2
1639.0
1682.6
1686.0
1695.7
1699.1
1700.8
1707.4
1709.6
1734.9
2107.3
2652.1
2654.5
2667.4
2670.4
2721.7
2733.5
2737.5
2744.6
2745.2
2746.4
2748.7
2753.2
2756.2
2760.8
2762.4
2767.1
2768.5
2771.7
2778.2
5572.9
       
[FR-COORD]
C -1.98176 -3.0744 0.424243
C 0.647042 -3.0744 0.424243
C 2.06642 -0.841306 0.424243
N 0.863038 1.49723 0.462983
C -1.70945 1.51178 1.0144
C -3.16794 -0.733781 0.753812
N -5.43334 3.9346 2.16355
C -5.79201 -0.263995 0.947509
N -7.17378 1.48665 1.39896
C -3.40359 -5.41992 0.136627
C -2.64221 -7.20193 -1.67449
C -3.95935 -9.44409 -1.96815
C -6.07434 -9.8965 -0.4267
C -6.87445 -8.14396 1.37137
C -5.5265 -5.89916 1.63253
O -7.17642 -12.1657 -0.89762
C 4.80179 -0.883825 0.215996
C 6.12158 1.35985 -0.0842818
C 8.71957 1.43392 -0.45807
C 10.0868 -0.811826 -0.398165
C 8.80083 -3.10028 -0.0115273
C 6.19773 -3.14564 0.276656
C 12.8783 -0.815984 -0.74682
C -9.39553 -12.7689 0.48925
C -2.98426 3.68383 2.13482
C 2.10988 3.62714 -0.089762
C 1.05125 5.89613 -1.22171
C -0.0608492 7.7921 0.250578
C -0.326545 7.28244 2.95175
C 1.35834 6.272 -3.818
C 0.532336 8.52172 -4.9131
C -0.557091 10.4097 -3.43231
C -0.839038 10.055 -0.837527
O -1.58983 5.36455 3.63734
O 4.85282 3.83369 0.0856046
O 5.8247 5.45507 -1.3247
H 1.64633 -4.88853 0.371898
H 0.215618 -1.79373 5.67182
H -1.01856 -6.80887 -2.88221
H -3.40359 -10.8421 -3.36466
H -8.51737 -8.48638 2.54641
H -6.15106 -4.49452 3.01392
H 0.216374 -1.5577 7.08798
H 9.65178 3.24787 -0.802756
H 9.86758 -4.85943 0.0472432
H 5.24815 -4.95033 0.550855
H 13.671 1.09774 -0.909147
H 13.4212 -1.83965 -2.4746
H 13.8489 -1.7393 0.842629
H -9.90103 -14.6295 -0.28138
H -10.8988 -11.3984 0.112439
H -8.98508 -12.9117 2.51088
H 2.27882 4.82901 -4.96544
H 0.763449 8.81123 -6.93964
H -1.17541 12.1683 -4.30139
H -1.66315 11.5349 0.331458
H -6.33587 5.32827 3.10671

[FR-NORM-COORD]
Vibration 1
0.00453534 -0.00151178 0.00302356
-0.0188973 -0.00245664 0.00529123
0.00226767 0.0158737 0.00359048
0.0181414 -0.0096376 0.000377945
0.000188973 0 -0.00510226
-0.0338261 0.0153068 0.00396842
-0.136816 -0.318041 -0.0170075
-0.0464873 -0.054991 -0.0132281
0.354135 0.423488 0.104691
0.00226767 -0.00075589 0.00151178
0.00113384 0 0.00113384
0.000188973 -0.000944863 0.000377945
0.00132281 0.00188973 0.000566918
0.000188973 0.000188973 0.000377945
-0.00491329 0.00510226 -0.0041574
0 -0.000944863 0.000188973
-0.00188973 0.00132281 -0.00264562
-0.000377945 0.00188973 0.000566918
0.00151178 -0.000377945 -0.00113384
-0.000566918 0.00132281 -0.000188973
-0.00226767 -0.000188973 0.000377945
-0.00075589 -0.00075589 -0.00113384
0 -0.000377945 0.000188973
0.000377945 0.000566918 -0.000566918
-0.00888171 -0.0744552 -0.0124722
0.00812582 0.00831479 0.00907068
0.00283459 -0.00113384 0.000944863
0.00321253 0.00321253 0.0020787
-0.0362827 -0.0296687 -0.0279679
0.000566918 0.000377945 0.00075589
0.000377945 -0.000377945 0.000944863
-0.000188973 0.00113384 0.000944863
0.00226767 0.0041574 0
-0.0997775 0.0096376 -0.0383614
-0.000566918 -0.0020787 -0.0062361
0.00377945 0.00548021 -0.000566918
-0.00283459 0.00661404 -0.00321253
0.000566918 0.000944863 -0.000188973
-0.00170075 0.000377945 -0.000944863
-0.00151178 0.00170075 -0.000377945
-0.00434637 0.00699199 -0.00604712
-0.0257003 0.0306136 -0.0349599
-0.000188973 -0.000566918 0
-0.000566918 0.000188973 -0.00188973
-0.00113384 0.000566918 0.000377945
-0.00434637 0.00075589 -0.00283459
0.000188973 -0.00075589 0.000188973
-0.00113384 -0.000566918 0.000188973
-0.000944863 -0.00075589 0.000188973
-0.00245664 0.00151178 0.000944863
0.0020787 0.00264562 -0.000377945
0.000377945 0.000944863 -0.00075589
0.00472431 -0.000944863 0.00226767
-0.00075589 -0.000566918 -0.000566918
-0.000566918 0.000377945 -0.00113384
0.00340151 0.00585815 -0.000944863
-0.225066 -0.294419 -0.0729434
Vibration 2
-0.00302356 -0.00302356 -0.00132281
-0.00321253 -0.00151178 0.00359048
-0.0041574 -0.00075589 -0.00132281
-0.00472431 -0.00113384 0.00226767
-0.00718096 -0.00151178 -0.0109604
-0.00529123 -0.00226767 -0.0141729
-0.0153068 -0.000377945 -0.0389284
-0.00661404 -0.00283459 -0.0315584
-0.0100155 -0.0020787 -0.0449755
-0.00113384 -0.00491329 0.00548021
0.00340151 -0.0126612 0.0151178
0.00548021 -0.0149288 0.0228657
0.00264562 -0.00925966 0.020787
-0.00226767 -0.00132281 0.0109604
-0.0041574 0.00075589 0.00321253
0.00529123 -0.0122832 0.0292908
-0.00491329 -0.000566918 -0.013795
-0.00283459 0.00226767 0.0151178
-0.00491329 0.00510226 0.00264562
-0.00736993 0.00226767 -0.041385
-0.00869274 -0.00226767 -0.0725655
-0.00718096 -0.00340151 -0.0593374
-0.00907068 0.0041574 -0.0548021
0.00321253 -0.00736993 0.027779
-0.0149288 -0.000188973 -0.0213539
-0.000188973 0.0020787 0.0213539
0.0124722 0.00302356 0.0119053
-0.000377945 0.00340151 0.00170075
-0.0232436 0.0020787 -0.000944863
0.0381725 0.00396842 0.0151178
0.0502667 0.00472431 0.00793685
0.0370386 0.00491329 -0.0020787
0.0117163 0.00434637 -0.00491329
-0.0270231 0.00075589 -0.0115273
-0.00340151 -0.000566918 0.0629279
0.0128501 0.034393 0.114328
-0.00226767 -0.00132281 0.0115273
-0.00661404 0.00340151 -0.00170075
0.00548021 -0.0171965 0.0164406
0.00907068 -0.020976 0.0304246
-0.00434637 0.00321253 0.00907068
-0.00774788 0.00680301 -0.00453534
-0.0105825 0.0111494 -0.00283459
-0.00434637 0.00982658 0.0279679
-0.0109604 -0.00472431 -0.108281
-0.00774788 -0.00718096 -0.0865495
-0.0107714 0.00491329 -0.0563138
-0.0156847 0.0062361 -0.0578256
-0.0020787 0.00321253 -0.0595264
0.00642507 -0.0117163 0.0359048
0.00264562 -0.0105825 0.0179524
-0.000944863 0.00283459 0.0294797
0.047999 0.00377945 0.0234326
0.0704868 0.00548021 0.0102045
0.0466762 0.00566918 -0.0075589
0.00151178 0.00453534 -0.0122832
-0.0217318 0.000566918 -0.0462983
Vibration 3
-0.00888171 0.00340151 -0.0294797
-0.00888171 0.00170075 -0.0289128
-0.00699199 0.000377945 -0.0224877
-0.00434637 0.00188973 -0.0194642
-0.00529123 0.0020787 -0.0228657
-0.00736993 0.0041574 -0.0306136
-0.0041574 0.00283459 -0.0211649
-0.00718096 0.00774788 -0.0362827
-0.00491329 0.0096376 -0.0351489
-0.00869274 0.00188973 -0.0202201
-0.0111494 -0.00529123 -0.013984
-0.0041574 -0.0119053 0.00529123
0.00548021 -0.0113384 0.0187083
0.00491329 -0.00188973 0.00944863
-0.00245664 0.00472431 -0.0103935
0.0147399 -0.020409 0.0410071
-0.00642507 -0.00283459 -0.0119053
-0.00321253 -0.00472431 -0.0109604
-0.000944863 -0.00774788 0.00264562
-0.00302356 -0.00869274 0.0168186
-0.00699199 -0.00661404 0.0153068
-0.00869274 -0.00396842 0.00113384
-0.00113384 -0.0117163 0.0326923
0.0315584 -0.0270231 0.0651955
-0.00434637 -0.0020787 -0.0149288
-0.00151178 0.00151178 -0.0124722
0.00170075 0.0128501 0.00699199
0.00907068 0.00453534 0.0234326
0.00377945 -0.0158737 0.0190862
0.00075589 0.0338261 0.00982658
0.00888171 0.0464873 0.0294797
0.0175745 0.0383614 0.0462983
0.0173855 0.0170075 0.0432747
-0.00434637 -0.0168186 0.00151178
0.000188973 -0.00264562 -0.0239995
-0.000944863 -0.0132281 -0.0372276
-0.0102045 0.000944863 -0.0315584
-0.000566918 -0.0298577 -0.0266451
-0.0179524 -0.0062361 -0.0236216
-0.00529123 -0.0181414 0.0111494
0.0103935 -0.000188973 0.0175745
-0.00264562 0.0117163 -0.0175745
-0.00245664 -0.0334482 -0.0260782
0.00226767 -0.0096376 0.00245664
-0.00869274 -0.00736993 0.0258892
-0.0115273 -0.00226767 0.000944863
0.00321253 -0.0122832 0.0470542
0.00661404 -0.00377945 0.0304246
-0.0113384 -0.0217318 0.0332592
0.0400622 -0.0372276 0.0846597
0.0175745 -0.0421409 0.0665184
0.0496998 -0.00718096 0.0627389
-0.00529123 0.0400622 -0.00321253
0.00850377 0.0627389 0.0317474
0.0241885 0.048188 0.061794
0.0236216 0.0100155 0.0565028
-0.0041574 -0.00132281 -0.0151178
Vibration 4
-0.000944863 -0.00226767 -0.0100155
-0.00113384 -0.00245664 -0.0187083
-0.00113384 -0.00226767 -0.013984
-0.00132281 -0.00264562 -0.00604712
-0.000566918 -0.00321253 -0.00302356
-0.000377945 -0.00321253 -0.00245664
0.000377945 -0.00566918 0.00566918
-0.000188973 -0.00529123 0.00491329
-0.000188973 -0.0062361 0.00925966
-0.00321253 -0.00113384 -0.00793685
-0.0192752 0.00566918 -0.0211649
-0.0232436 0.0075589 -0.0187083
-0.0102045 0.00264562 -0.00226767
0.00604712 -0.0041574 0.0113384
0.00907068 -0.00566918 0.00831479
-0.0158737 0.00510226 -0.00188973
-0.00075589 -0.00075589 -0.0105825
-0.000377945 0.00132281 0.00642507
0.00151178 0.00472431 0.020976
0.00245664 0.00510226 0.0170075
0.00113384 0.0020787 -0.00510226
-0.000377945 -0.00075589 -0.0188973
0.00472431 0.00869274 0.0359048
-0.00113384 -0.00113384 0.0188973
0.000377945 -0.00396842 0.000188973
-0.00113384 -0.000944863 -0.00075589
-0.000566918 -0.00188973 -0.00302356
-0.00302356 -0.00188973 -0.00491329
-0.00132281 -0.00113384 -0.00453534
0.00132281 -0.00321253 -0.00302356
-0.000188973 -0.00472431 -0.00491329
-0.00340151 -0.00491329 -0.00680301
-0.00472431 -0.00340151 -0.00680301
0.00132281 -0.00226767 -0.00264562
-0.00264562 0.000377945 0.00907068
0.00151178 0.00491329 0.0170075
-0.00132281 -0.00226767 -0.0285349
0.352812 0.107714 -0.0236216
-0.0291018 0.00944863 -0.0330702
-0.0362827 0.0128501 -0.0292908
0.0158737 -0.00774788 0.0239995
0.0213539 -0.0100155 0.0181414
0.523265 0.203712 -0.0396842
0.00245664 0.00680301 0.0355268
0.00132281 0.0020787 -0.0107714
-0.00113384 -0.00283459 -0.0359048
0.00510226 0.0103935 0.05518
0.0168186 0.0215429 0.0321253
-0.00566918 -0.00245664 0.0357158
-0.00907068 0.00226767 0.0158737
-0.00529123 0.000377945 0.0408181
0.0202201 -0.0102045 0.013795
0.00359048 -0.00302356 -0.00132281
0.00113384 -0.00548021 -0.00491329
-0.00472431 -0.0062361 -0.00850377
-0.00680301 -0.00359048 -0.00831479
0.00151178 -0.00604712 0.0075589
Vibration 5
0.00170075 -0.00245664 0.0119053
0.00188973 0 0.020976
0.00075589 0.00075589 0.0128501
0 0.000377945 0.00359048
-0.00113384 -0.000377945 -0.00075589
0 -0.00113384 -0.000944863
-0.00396842 0.00264562 -0.0168186
-0.000566918 0.00170075 -0.0149288
-0.00170075 0.00340151 -0.0245664
0.00491329 -0.00434637 0.0128501
0.0332592 -0.0230547 0.0427078
0.0355268 -0.0239995 0.0408181
0.00699199 -0.00604712 0.00699199
-0.020598 0.0111494 -0.0222988
-0.020598 0.0107714 -0.0183303
0.0107714 -0.00793685 0.00736993
0.000377945 0.000188973 0.00982658
-0.000944863 -0.00151178 -0.00831479
-0.00264562 -0.00377945 -0.0215429
-0.00245664 -0.00340151 -0.0147399
-0.000188973 -0.00075589 0.00831479
0.00113384 0.00075589 0.020598
-0.00453534 -0.00604712 -0.0315584
-0.0264562 0.0175745 -0.0408181
-0.0041574 -0.000188973 -0.00548021
-0.00113384 -0.000566918 -0.000944863
-0.00264562 0.00226767 0.00585815
0.000944863 0.000188973 0.0115273
-0.00264562 -0.00548021 0.0102045
-0.00529123 0.00850377 0.00642507
-0.00302356 0.0124722 0.0128501
0.00170075 0.0105825 0.0188973
0.00359048 0.0041574 0.0181414
-0.00718096 -0.00510226 0.00302356
0.000377945 -0.000944863 -0.013606
-0.00510226 -0.00718096 -0.0245664
0.00359048 0.000566918 0.0334482
0.0910848 0.0769118 0.0105825
0.0540462 -0.0368497 0.0659514
0.0582036 -0.0379835 0.0638727
-0.041385 0.0245664 -0.0474321
-0.041574 0.0224877 -0.0393063
0.175178 0.124155 0.00264562
-0.00434637 -0.00585815 -0.0372276
0.000377945 -0.000188973 0.0160627
0.00264562 0.00264562 0.0383614
-0.00585815 -0.00718096 -0.0534792
-0.0147399 -0.0213539 -0.0257003
0.00529123 0.00850377 -0.0291018
-0.0177634 0.0128501 -0.0349599
-0.00982658 0.0221098 -0.0907068
-0.0763449 0.0349599 -0.0294797
-0.00869274 0.0100155 0.00151178
-0.00510226 0.0171965 0.0134171
0.00377945 0.013984 0.0239995
0.00699199 0.00245664 0.0228657
-0.00718096 0.00245664 -0.0194642
Vibration 6
-0.0160627 0.0115273 0.00661404
-0.0158737 0.0062361 0.0113384
-0.0117163 0.00302356 0.0128501
-0.00736993 0.00529123 0.00944863
-0.00718096 0.0103935 0.0105825
-0.0117163 0.0126612 0.0117163
-0.00188973 0.0170075 0.013984
-0.0105825 0.0160627 0.0179524
-0.00718096 0.0177634 0.0211649
-0.0130391 0.0111494 -0.00566918
-0.0020787 0.020787 -0.0109604
0.013984 0.0122832 -0.0153068
0.0188973 -0.00642507 -0.0141729
0.00302356 -0.0126612 -0.0151178
-0.0134171 -0.00302356 -0.0113384
0.0406291 -0.0170075 -0.013606
-0.0120942 -0.00434637 0.0111494
-0.00736993 -0.00850377 0.00132281
-0.00869274 -0.0168186 -0.00925966
-0.0147399 -0.020409 -0.00907068
-0.0190862 -0.0156847 0.00510226
-0.0179524 -0.00774788 0.0154958
-0.0166296 -0.0298577 -0.0243775
0.0593374 -0.048566 0.00245664
-0.00226767 0.0141729 0.00888171
-0.00264562 0.00113384 0.00453534
0.00283459 0.00113384 -0.000377945
0.00604712 0.00661404 -0.00510226
0.00434637 0.0134171 -0.0041574
0.0062361 -0.00491329 -0.000944863
0.0132281 -0.00510226 -0.0062361
0.0166296 0.00075589 -0.0109604
0.0128501 0.00642507 -0.0105825
0.0020787 0.0171965 0.00170075
-0.00132281 -0.00566918 0.00226767
0.000944863 -0.00831479 0.00113384
-0.0196532 0.00396842 0.0124722
-0.0366607 0.175933 0.013984
-0.00510226 0.034771 -0.0105825
0.0236216 0.0188973 -0.0181414
0.00340151 -0.0251334 -0.0181414
-0.0253223 -0.00736993 -0.0120942
0.00869274 0.197287 0.0105825
-0.00491329 -0.0202201 -0.0177634
-0.0234326 -0.0183303 0.0075589
-0.0217318 -0.0041574 0.0264562
-0.0105825 -0.0325033 -0.0249444
-0.0304246 -0.0283459 -0.0296687
-0.0107714 -0.0368497 -0.0319364
0.0814472 -0.0566918 0.0075589
0.0366607 -0.0710537 0.0113384
0.0750221 -0.0406291 -0.000188973
0.00340151 -0.0096376 0.00283459
0.0162516 -0.00944863 -0.00642507
0.0224877 0.00075589 -0.0149288
0.0153068 0.0107714 -0.0143619
0.00188973 0.020409 0.0126612
Vibration 7
0.0109604 -0.00944863 -0.00491329
0.0105825 -0.00642507 -0.0075589
0.0075589 -0.0041574 -0.00736993
0.00472431 -0.00548021 -0.00585815
0.00472431 -0.00888171 -0.00661404
0.00774788 -0.0105825 -0.00736993
0.000377945 -0.0145509 -0.00831479
0.00699199 -0.013984 -0.0102045
0.00472431 -0.0153068 -0.0117163
0.00869274 -0.00888171 0.00132281
-0.00812582 -0.00642507 -0.00774788
-0.0188973 -0.000377945 -0.00680301
-0.0117163 0.00321253 0.0041574
0.00812582 -0.00113384 0.0171965
0.0181414 -0.00699199 0.0154958
-0.0266451 0.0111494 0.000944863
0.00793685 0 -0.0062361
0.00491329 0.00226767 -0.00226767
0.00548021 0.00699199 0.00245664
0.00925966 0.00925966 0.00321253
0.0119053 0.00661404 -0.00245664
0.0115273 0.00226767 -0.00718096
0.0100155 0.0143619 0.0100155
-0.0251334 0.0200311 0.00736993
0.000944863 -0.0117163 -0.00548021
0.0020787 -0.00302356 -0.00264562
-0.00075589 -0.00188973 0.00245664
-0.00188973 -0.00585815 0.00680301
-0.00283459 -0.0117163 0.00566918
-0.0020787 0.00434637 0.00321253
-0.0041574 0.00604712 0.00850377
-0.00529123 0.00188973 0.0128501
-0.00396842 -0.00396842 0.0122832
-0.00283459 -0.013795 0
0.00170075 0.000566918 -0.00302356
-0.000377945 0.00151178 -0.00359048
0.0126612 -0.00510226 -0.00869274
-0.21146 0.419897 0.00812582
-0.013606 -0.00888171 -0.0158737
-0.0328812 0.00188973 -0.0147399
0.0154958 0.000566918 0.027779
0.0330702 -0.0096376 0.0247554
-0.204468 0.426322 0.00718096
0.00321253 0.00869274 0.00585815
0.0145509 0.00831479 -0.00283459
0.013795 0.000377945 -0.0113384
0.00661404 0.0156847 0.00925966
0.0166296 0.0130391 0.0130391
0.00774788 0.0187083 0.013984
-0.0425188 0.0279679 -0.000566918
-0.0168186 0.0332592 0.0215429
-0.0170075 0.00604712 0.00472431
-0.00113384 0.0075589 -0.000377945
-0.00529123 0.0105825 0.00888171
-0.00699199 0.00340151 0.0170075
-0.00472431 -0.00736993 0.0158737
-0.00226767 -0.0170075 -0.00699199
Vibration 8
-0.00245664 0.00170075 -0.00377945
-0.0020787 0.00075589 -0.00680301
-0.00075589 -0.000377945 -0.00774788
0.000566918 0.000188973 -0.00359048
0.00132281 0.00113384 -0.000377945
-0.000377945 0.00226767 -0.00075589
0.00529123 0.00283459 0.00888171
0.000188973 0.00472431 0.00340151
0.00188973 0.00453534 0.00793685
-0.00226767 0.00151178 -0.00245664
0.00850377 -0.0075589 0.0107714
0.0115273 -0.0096376 0.0141729
0.0020787 -0.00245664 0.00321253
-0.0100155 0.00680301 -0.0113384
-0.0117163 0.00812582 -0.0134171
0.00661404 -0.00585815 0.00888171
-0.00075589 -0.000944863 -0.00869274
0.000566918 -0.000188973 0.00264562
0.0020787 0.000566918 0.0141729
0.00151178 -0.000188973 0.0115273
-0.00113384 -0.00170075 -0.00812582
-0.00226767 -0.00188973 -0.0175745
0.00151178 0.00188973 0.0111494
-0.00434637 0.00226767 -0.00510226
0.00491329 0.00132281 0.00377945
0.00113384 0.000377945 -0.00188973
0.000188973 -0.000377945 -0.00245664
0.00113384 -0.000188973 -0.00188973
0.0075589 0.000188973 -0.000944863
-0.00510226 -0.00226767 -0.00340151
-0.0107714 -0.00434637 -0.00359048
-0.0103935 -0.00453534 -0.00321253
-0.0041574 -0.00226767 -0.0020787
0.00888171 0 0.00151178
0.000377945 0.000377945 0.00151178
0.00245664 0.000377945 0.00321253
-0.00283459 0.000377945 -0.00774788
-0.0262672 0.020598 -0.00604712
0.0153068 -0.0132281 0.0179524
0.020976 -0.0166296 0.0249444
-0.0175745 0.0126612 -0.0202201
-0.020598 0.013984 -0.0232436
-0.0239995 0.0156847 -0.00529123
0.00434637 0.00132281 0.0245664
-0.00283459 -0.00302356 -0.0156847
-0.00396842 -0.00321253 -0.0315584
0.0474321 0.0156847 0.399488
-0.0370386 0.342985 -0.205035
-0.00888171 -0.348465 -0.187839
0.00283459 -0.00302356 0.00321253
-0.00188973 -0.00075589 -0.0264562
-0.020787 0.0158737 -0.00075589
-0.00548021 -0.0020787 -0.00377945
-0.0154958 -0.00585815 -0.00453534
-0.0149288 -0.00642507 -0.00359048
-0.00340151 -0.00226767 -0.00188973
0.00774788 0.00264562 0.0115273
Vibration 9
-0.00793685 0.00434637 -0.013795
-0.00736993 0.00151178 -0.0238105
-0.00377945 -0.00113384 -0.0230547
-0.000377945 0 -0.0103935
0.00226767 0.00264562 -0.000566918
-0.00264562 0.00566918 -0.00188973
0.0132281 0.00585815 0.0287238
-0.000566918 0.0109604 0.0132281
0.00396842 0.0102045 0.0285349
-0.00831479 0.00434637 -0.0115273
0.0141729 -0.0145509 0.0158737
0.0219208 -0.0202201 0.0253223
0.00396842 -0.00680301 0.00472431
-0.0219208 0.0134171 -0.0268341
-0.0270231 0.0173855 -0.0336371
0.0162516 -0.0158737 0.0198421
-0.00377945 -0.00264562 -0.0253223
-0.000566918 -0.00075589 0.00170075
0.00226767 0.00151178 0.0228657
0.000566918 0 0.0120942
-0.00453534 -0.00377945 -0.02759
-0.00661404 -0.00472431 -0.0464873
0.00510226 0.00264562 0.048566
-0.00283459 -0.00170075 -0.00453534
0.0124722 0.00245664 0.0124722
0.00151178 0.00113384 -0.00434637
0.000566918 0 -0.00566918
0.00396842 0.000377945 -0.00340151
0.0196532 0.000188973 -0.00170075
-0.0105825 -0.00359048 -0.00718096
-0.020598 -0.00718096 -0.00718096
-0.0185193 -0.00736993 -0.00548021
-0.00548021 -0.00302356 -0.00340151
0.0239995 -0.000377945 0.00510226
-0.000566918 0.000188973 0.00661404
0.00548021 0.00529123 0.0171965
-0.00944863 0.000566918 -0.0304246
-0.0502667 0.0440306 -0.020598
0.0268341 -0.0257003 0.0292908
0.0417629 -0.0351489 0.048188
-0.0372276 0.0253223 -0.0444086
-0.0461093 0.0298577 -0.0542351
-0.0430858 0.0306136 -0.0185193
0.00604712 0.0041574 0.047999
-0.00661404 -0.00548021 -0.0423299
-0.0102045 -0.0075589 -0.0771008
-0.0062361 0 -0.0381725
0.0398732 -0.082581 0.110738
-0.0132281 0.0918407 0.11225
0.0141729 -0.0147399 0.0154958
-0.000944863 -0.0115273 -0.0478101
-0.0332592 0.0296687 0.00377945
-0.0122832 -0.00359048 -0.00850377
-0.0304246 -0.0100155 -0.00869274
-0.0270231 -0.0103935 -0.00585815
-0.00302356 -0.00264562 -0.00226767
0.020976 0.00510226 0.0372276
Vibration 10
-0.00472431 -0.0103935 0.0151178
-0.00453534 -0.00359048 -0.00302356
-0.0100155 -0.000377945 -0.0141729
-0.0143619 -0.0020787 -0.0132281
-0.0115273 -0.00661404 0.00075589
-0.00699199 -0.0126612 0.0222988
-0.0109604 -0.013606 0.0185193
-0.00680301 -0.0228657 0.0495108
-0.0096376 -0.0268341 0.0555579
0.00132281 -0.0147399 0.0196532
0.00321253 -0.0100155 0.0153068
0.00566918 -0.0105825 0.00907068
0.00491329 -0.0160627 0.00642507
0.00699199 -0.0243775 0.0153068
0.00529123 -0.0238105 0.0222988
0.00377945 -0.0132281 -0.00491329
-0.0102045 0.00226767 -0.0183303
-0.0124722 0.00434637 -0.0109604
-0.0107714 0.0102045 0.00283459
-0.00680301 0.0128501 0.00718096
-0.00566918 0.00944863 -0.00944863
-0.00699199 0.0041574 -0.0222988
-0.00396842 0.0200311 0.0302356
-0.0226767 0.000566918 -0.0410071
-0.0102045 -0.00434637 -0.00151178
-0.0175745 -0.00188973 -0.0179524
-0.00604712 0.00434637 -0.0154958
0.0062361 0.0102045 -0.013606
-0.0102045 0.00566918 -0.0173855
0.0185193 0.0151178 -0.0113384
0.0646286 0.0357158 -0.00377945
0.0818251 0.0432747 -0.000944863
0.0495108 0.0287238 -0.00642507
-0.00869274 0.00736993 -0.0158737
-0.0166296 0.00170075 -0.0170075
-0.0170075 -0.000944863 -0.0213539
-0.000566918 -0.00132281 -0.00661404
-0.00434637 -0.0062361 -0.000566918
0.0020787 -0.00510226 0.0153068
0.00680301 -0.00585815 0.00491329
0.0096376 -0.0309915 0.0170075
0.00604712 -0.0300466 0.0289128
-0.0217318 -0.0134171 0.000566918
-0.0122832 0.0124722 0.0107714
-0.00340151 0.0107714 -0.0109604
-0.00529123 0.00132281 -0.034582
-0.00604712 0.0222988 0.048566
0.0122832 0.0313695 0.0285349
-0.0154958 0.0120942 0.0326923
-0.0300466 0.0102045 -0.0597153
-0.00377945 0.0177634 -0.0538572
-0.0525344 -0.0160627 -0.0360938
0.00585815 0.00831479 -0.0130391
0.0891951 0.0461093 0.000377945
0.120942 0.0602823 0.00585815
0.0600933 0.0328812 -0.0041574
-0.00718096 -0.0109604 0.0183303
Vibration 11
-0.00283459 0.00302356 0.0119053
-0.00302356 0.00132281 0.0115273
-0.00188973 0.000377945 0.00075589
-0.000188973 0.00113384 0
-0.000188973 0.00340151 -0.000377945
-0.00226767 0.0041574 0.00396842
0.000377945 0.0117163 -0.0175745
-0.0020787 0.00812582 -0.00377945
0.000566918 0.013606 -0.0153068
0 0.00151178 0.0122832
-0.00151178 0.0102045 0.00302356
0.00321253 0.00831479 -0.00075589
0.0096376 -0.00226767 0.00510226
0.0128501 -0.0120942 0.0160627
0.0075589 -0.00888171 0.0192752
0.013984 -0.00302356 -0.00113384
-0.00264562 -0.00283459 -0.00793685
0 -0.00340151 0
0.00113384 -0.00529123 0.00736993
-0.00170075 -0.00736993 0.00151178
-0.0062361 -0.00812582 -0.0185193
-0.00661404 -0.00585815 -0.0228657
0.000188973 -0.00925966 0.0173855
-0.00151178 0.00113384 -0.0243775
0.000188973 0.00661404 -0.00680301
0.00132281 0.000188973 -0.00075589
0 0.000566918 0.00132281
0.00491329 0.00132281 0.00434637
0.00566918 -0.000377945 0.00434637
-0.0111494 -0.000944863 -0.000188973
-0.0177634 -0.00226767 0.00170075
-0.0111494 -0.00113384 0.00510226
0.000944863 0.00075589 0.00661404
-0.000566918 0.00151178 -0.000377945
0.00151178 -0.00188973 -0.00283459
0.0020787 -0.00548021 -0.0062361
-0.00453534 0.000377945 0.0175745
0.425566 -0.283081 0.0925966
-0.00699199 0.0192752 -0.00132281
0.00132281 0.0149288 -0.00831479
0.0194642 -0.0221098 0.0222988
0.00982658 -0.0143619 0.0257003
-0.34941 0.321631 -0.00774788
0.00453534 -0.00529123 0.0175745
-0.00925966 -0.0103935 -0.0296687
-0.00982658 -0.00642507 -0.0377945
0.00245664 -0.00982658 0.0215429
0.0102045 -0.0102045 0.0211649
-0.0102045 -0.00944863 0.0238105
-0.00491329 0.00831479 -0.0393063
0.00888171 0.0113384 -0.0291018
-0.0192752 -0.0124722 -0.0217318
-0.0153068 -0.00132281 -0.00302356
-0.0281569 -0.00434637 0.000188973
-0.0156847 -0.0020787 0.00642507
0.00604712 0.00170075 0.00925966
-0.000944863 0.0141729 -0.0222988
Vibration 12
0.00453534 -0.0062361 -0.0168186
0.00491329 -0.00359048 -0.0149288
0.00302356 -0.00188973 -0.000566918
0.000188973 -0.00302356 -0.000566918
0.000188973 -0.00661404 0.000377945
0.00377945 -0.0075589 -0.00566918
0.000188973 -0.0188973 0.0287238
0.00359048 -0.0134171 0.00793685
-0.000377945 -0.0221098 0.0264562
-0.000944863 -0.00283459 -0.0194642
0.00548021 -0.0198421 0
-0.00377945 -0.0153068 0.00340151
-0.0202201 0.00548021 -0.0132281
-0.0302356 0.0245664 -0.0362827
-0.0194642 0.0177634 -0.0381725
-0.0287238 0.00812582 -0.00585815
0.00434637 0.0041574 0.0117163
-0.000566918 0.00566918 -0.000566918
-0.00245664 0.0100155 -0.0115273
0.00340151 0.013795 -0.00283459
0.0111494 0.0143619 0.0268341
0.0117163 0.00925966 0.0332592
0.000377945 0.0187083 -0.0260782
0.00925966 -0.00925966 0.0474321
0.000377945 -0.0113384 0.0103935
-0.00302356 -0.00132281 0
-0.00151178 -0.00226767 -0.00283459
-0.0062361 -0.00245664 -0.0062361
-0.00642507 -0.00113384 -0.00642507
0.013984 0.000188973 -0.00075589
0.0258892 0.00359048 -0.00245664
0.0196532 0.00302356 -0.0062361
0.00245664 -0.000566918 -0.00850377
0.00283459 -0.0041574 0.000377945
-0.00340151 0.00302356 0.00340151
-0.00472431 0.00831479 0.00812582
0.00736993 -0.00170075 -0.0232436
0.131714 -0.0918407 0.0143619
0.0192752 -0.0377945 0.0126612
0.00340151 -0.0283459 0.0194642
-0.0461093 0.0444086 -0.0523454
-0.0260782 0.0281569 -0.0512116
-0.112439 0.114517 -0.0198421
-0.00850377 0.0103935 -0.0266451
0.0166296 0.0181414 0.0430858
0.0173855 0.0096376 0.0548021
-0.00434637 0.0202201 -0.0317474
-0.0134171 0.020976 -0.0319364
0.0164406 0.0192752 -0.0357158
0.0192752 -0.0241885 0.0771008
-0.0173855 -0.0338261 0.0636838
0.0519675 0.0173855 0.0406291
0.0177634 -0.000188973 0.00264562
0.0404401 0.00699199 -0.000188973
0.0287238 0.00566918 -0.00718096
-0.00283459 -0.00113384 -0.0115273
0.00283459 -0.0226767 0.0364717
Vibration 13
-0.00245664 0.00699199 -0.0283459
-0.00302356 0.00661404 -0.0292908
-0.00283459 0.0062361 -0.00925966
-0.00113384 0.00718096 -0.0041574
-0.00226767 0.00510226 -0.00585815
-0.00151178 0.00566918 -0.0158737
-0.00302356 -0.00944863 0.027779
-0.00151178 -0.000566918 -0.00188973
-0.00453534 -0.00888171 0.0198421
0 0.00491329 -0.0224877
-0.0075589 0.00302356 -0.0236216
0.000566918 -0.00472431 -0.00377945
0.0154958 -0.00850377 0.0151178
0.0219208 -0.00566918 0.0151178
0.0145509 0.000566918 -0.00302356
0.0264562 -0.0194642 0.0410071
-0.00226767 0.00226767 0.00604712
0.00151178 -0.00113384 -0.00113384
0.000944863 -0.00888171 -0.0075589
-0.0041574 -0.0119053 0.000188973
-0.00661404 -0.00642507 0.0241885
-0.0062361 0.000377945 0.0268341
-0.00642507 -0.0224877 -0.0175745
-0.02759 0.0300466 -0.0234326
-0.00264562 -0.00302356 0.0096376
0.00340151 0.00642507 0.0020787
0.00736993 0.00812582 0.00188973
-0.0156847 -0.000566918 -0.00491329
-0.0107714 0.00396842 -0.00359048
0.0296687 0.0156847 0.00510226
0.0194642 0.00925966 0.000377945
-0.0162516 -0.00453534 -0.00793685
-0.0323143 -0.00869274 -0.0103935
-0.00075589 0.000377945 0.0041574
0.00491329 -0.000188973 0.0041574
0.00888171 0.00321253 0.0113384
-0.00340151 0.00661404 -0.0427078
0.148532 0.131525 -0.0534792
-0.0202201 0.00718096 -0.0391173
-0.00453534 -0.00718096 -0.00340151
0.034204 -0.0100155 0.0311805
0.020976 0.00151178 -0.00113384
-0.089951 -0.0844708 -0.0173855
0.0041574 -0.0124722 -0.0185193
-0.00907068 -0.00736993 0.0394953
-0.00907068 0.00453534 0.0449755
-0.000377945 -0.0257003 -0.0251334
-0.0221098 -0.0266451 -0.0202201
0.00113384 -0.0243775 -0.0232436
-0.0338261 0.0311805 -0.0215429
0.00642507 0.0510226 -0.082581
-0.0922186 0.0423299 -0.00944863
0.0534792 0.0255113 0.0117163
0.0376055 0.0149288 0.00321253
-0.0298577 -0.0115273 -0.0122832
-0.0566918 -0.0177634 -0.0162516
0.000377945 -0.0154958 0.0398732
Vibration 14
0.00113384 -0.00396842 0.0160627
0.00132281 -0.00377945 0.0154958
0.00132281 -0.00359048 0.00604712
0.000377945 -0.0041574 0.00434637
0.000944863 -0.00302356 0.00491329
0.00075589 -0.00321253 0.0100155
0.000566918 0.00585815 -0.0175745
0.000566918 0.000188973 0.00113384
0.00188973 0.00510226 -0.0128501
-0.000188973 -0.00283459 0.0124722
0.00585815 -0.00321253 0.0151178
0.00132281 0.00113384 0.0041574
-0.00925966 0.00472431 -0.00907068
-0.0147399 0.00453534 -0.0113384
-0.0102045 0.00075589 -0.00075589
-0.0151178 0.0109604 -0.0238105
0.000944863 -0.00170075 -0.00264562
-0.00113384 0.000188973 0.000944863
-0.000944863 0.0041574 0.0041574
0.00170075 0.00566918 -0.000566918
0.00302356 0.00283459 -0.0132281
0.00302356 -0.00075589 -0.0141729
0.00283459 0.0113384 0.00831479
0.0160627 -0.0179524 0.0134171
0.000377945 0.0020787 -0.00529123
-0.0020787 -0.00359048 0.000377945
-0.00453534 -0.00491329 0.000377945
0.00831479 0.000377945 0.00359048
0.0041574 -0.00151178 0.00283459
-0.0168186 -0.00982658 -0.00151178
-0.0107714 -0.00642507 0.000566918
0.0096376 0.00188973 0.00472431
0.0183303 0.00491329 0.00604712
-0.00170075 0.00075589 -0.00170075
-0.00283459 -0.000188973 -0.00245664
-0.00585815 -0.00302356 -0.00812582
0.00151178 -0.00377945 0.0202201
0.373788 0.442007 -0.0614161
0.0143619 -0.00661404 0.0255113
0.00585815 0.00132281 0.00566918
-0.0234326 0.00812582 -0.0224877
-0.0151178 0.000944863 -0.00302356
-0.199555 -0.340151 0.0693529
-0.00245664 0.00604712 0.00982658
0.00434637 0.00340151 -0.0219208
0.00453534 -0.00283459 -0.0236216
-0.000377945 0.0130391 0.0122832
0.0107714 0.0134171 0.0096376
-0.000944863 0.0122832 0.0111494
0.0211649 -0.0196532 0.013984
-0.00434637 -0.0315584 0.0459203
0.0531013 -0.0228657 0.00566918
-0.0304246 -0.0156847 -0.00472431
-0.020787 -0.0102045 -0.00113384
0.0177634 0.00585815 0.00661404
0.0319364 0.0103935 0.00888171
-0.00188973 0.00982658 -0.0258892
Vibration 15
-0.00680301 -0.00226767 -0.0141729
-0.00585815 -0.00566918 -0.0109604
-0.00264562 -0.00774788 -0.00302356
-0.0041574 -0.00888171 -0.0130391
-0.00283459 -0.00434637 -0.0130391
-0.00642507 -0.0020787 -0.0105825
0.0113384 0.00774788 -0.00359048
-0.00453534 0.00642507 -0.0020787
0.00529123 0.0134171 0.00302356
-0.00680301 -0.00264562 -0.0130391
-0.013984 -0.000566918 -0.0181414
-0.00888171 -0.00510226 -0.00831479
0.00321253 -0.0115273 0.0062361
0.00831479 -0.0122832 0.00925966
0.00283459 -0.00774788 -0.00075589
0.0122832 -0.0194642 0.0215429
-0.00113384 0.000188973 0.013606
-0.00699199 0.00321253 0.00264562
-0.00944863 0.00831479 -0.00869274
-0.00264562 0.0128501 0.00226767