[Molden Format]
[FREQ]
-462.9
7.6
13.7
22.7
27.0
28.8
31.1
33.3
39.4
42.6
48.2
55.0
68.5
76.2
83.0
93.3
113.6
119.7
124.9
136.2
138.1
143.7
149.5
175.6
191.9
204.9
220.1
235.1
239.8
249.2
259.3
287.5
303.3
324.3
327.9
340.2
350.2
356.3
357.8
365.7
378.5
389.8
450.8
467.5
473.9
508.5
521.8
533.1
538.9
546.6
557.6
575.4
589.1
609.3
613.2
615.3
636.0
647.8
653.7
673.0
680.2
695.0
705.1
725.6
739.9
763.9
794.0
813.3
817.8
864.6
877.6
882.1
883.2
886.2
899.0
901.9
914.9
965.8
981.9
989.7
995.9
1009.8
1010.6
1018.0
1018.5
1025.0
1032.6
1037.7
1070.1
1076.1
1082.2
1101.3
1124.6
1136.6
1175.8
1176.4
1181.1
1185.5
1204.2
1211.3
1229.4
1246.5
1261.8
1264.9
1266.0
1268.4
1279.9
1285.1
1293.4
1296.8
1302.8
1318.2
1325.1
1334.6
1344.1
1348.8
1352.2
1365.2
1381.5
1389.7
1393.2
1428.3
1474.0
1490.1
1496.3
1511.3
1519.4
1522.0
1530.3
1541.3
1557.5
1593.6
1600.5
1655.6
1660.8
1665.5
1693.7
1697.1
1705.9
1706.6
1713.3
1865.2
2056.6
2453.9
2505.2
2650.9
2652.3
2662.1
2670.7
2722.8
2733.1
2737.3
2744.0
2746.6
2749.9
2750.2
2750.4
2755.0
2756.4
2762.4
2762.9
2765.2
2766.4
2774.5
2777.9
       
[FR-COORD]
C -2.14371 -2.39202 -0.851133
C 0.503801 -2.39202 -0.851133
C 1.8285 -0.125667 -0.851133
N 0.612271 2.15939 -0.852644
C -1.98894 2.21249 -0.652711
C -3.40736 -0.069164 -0.790472
N -3.1428 4.53005 -0.384181
C -6.07774 0.0559359 -0.814661
N -8.26245 0.165351 -0.856424
C -3.50998 -4.78913 -0.897053
C -2.99181 -6.55433 -2.80738
C -4.27588 -8.82956 -2.88599
C -6.08643 -9.34658 -1.00666
C -6.6044 -7.62391 0.924265
C -5.3073 -5.33866 0.958091
O -7.19551 -11.6316 -1.30353
C 4.61093 -0.168564 -0.918785
C 5.95604 -0.210515 1.35002
C 8.58106 -0.292719 1.30542
C 9.87023 -0.354702 -1.00212
C 8.50622 -0.357347 -3.26564
C 5.87932 -0.271365 -3.22822
C 12.6821 -0.390606 -1.04162
C -9.10999 -12.3184 0.455046
C 1.91051 4.74661 -1.47682
C -2.49878 6.4366 1.50328
C -0.869841 5.70622 3.60276
C 1.46397 4.60035 3.3006
C 3.66607 4.52759 -5.82036
C -1.83285 6.22873 6.02993
C -0.433314 5.54899 8.13451
C 1.93432 4.39305 7.82347
C 2.87276 3.93932 5.41577
O 4.79461 4.9371 -7.60482
O -3.68912 8.35523 1.22511
O 4.06858 5.1325 -0.589028
H 1.53295 -4.17894 -0.832802
H -4.75568 4.87077 -1.39859
H -1.58283 -6.11969 -4.24943
H -3.92043 -10.2164 -4.36111
H -7.99524 -8.02888 2.37746
H -5.69356 -3.97088 2.45891
H 4.9405 -0.172532 3.15206
H 9.6376 -0.306136 3.07269
H 9.50381 -0.423677 -5.06352
H 4.82334 -0.293852 -4.99436
H 13.448 1.53824 -0.846408
H 13.4533 -1.16653 -2.80719
H 13.4813 -1.51858 0.510037
H -9.68636 -14.1888 -0.241696
H -10.6991 -10.9957 0.373221
H -8.33672 -12.4667 2.36745
H -3.65624 7.15715 6.24592
H -1.14876 5.91654 10.0203
H 3.02488 3.87243 9.48529
H 4.72413 3.08725 5.20506
H 4.54555 4.54611 1.19998

[FR-NORM-COORD]
Vibration 1
0.000188973 -0.000566918 -0.00075589
0.000944863 -0.0020787 -0.00151178
0.00226767 -0.00510226 0.00188973
0.0075589 -0.00264562 0.00888171
-0.00264562 0.00188973 0.000944863
0.00151178 -0.000566918 -0.00321253
-0.0062361 -0.00359048 -0.00245664
0.000944863 -0.000377945 -0.00132281
0.000944863 -0.000377945 0
0 -0.000188973 0
0 -0.000188973 0
0 -0.000188973 0
0 0 0
0 0 0
0 0 0.000188973
0 0 0
0.00151178 -0.00151178 0.000566918
0.00151178 -0.00302356 0.000944863
0.000944863 0.000377945 0.000377945
0.000944863 0 0
0.000566918 0.000377945 0
0.000566918 -0.000566918 0.000188973
0.000188973 0 0
0 0 0
-0.0493218 0.0170075 0.247176
-0.0192752 0.00661404 0.00661404
-0.0387394 0.0062361 0.00718096
-0.0661404 -0.0241885 -0.0657625
-0.00680301 0.00604712 0.00113384
-0.00736993 0.0145509 0.013795
0.0105825 -0.00226767 -0.00680301
0.0122832 0.00302356 -0.0517785
-0.0171965 0.0109604 -0.0710537
-0.000188973 -0.0020787 0.00302356
-0.0119053 0.00585815 -0.00925966
0.0916517 -0.0075589 -0.0228657
-0.00113384 -0.00340151 -0.00283459
-0.00850377 -0.0096376 -0.000377945
-0.000188973 -0.000377945 0
-0.000188973 -0.000188973 0
0 0 0.000188973
0.000377945 0.000188973 0.000377945
-0.00151178 -0.00736993 0.00170075
0.00151178 -0.00396842 0.00075589
0.000566918 -0.00113384 -0.000377945
-0.000188973 -0.0020787 0.000188973
0.00264562 -0.000944863 0
0.00075589 -0.00075589 0.000188973
0.000566918 -0.000944863 -0.000188973
0 0 0
0 0 0
0 0 0
-0.000188973 0.0228657 0.0308025
0.0323143 -0.0188973 0.00321253
0.0319364 -0.00132281 -0.0663294
-0.0162516 0.0260782 -0.0950532
0.716773 -0.161005 -0.441062
Vibration 2
-0.00075589 0.000377945 -0.000944863
-0.000944863 0.000566918 -0.00680301
-0.00113384 0.00075589 -0.00869274
-0.00075589 0.000944863 -0.00302356
-0.00075589 0.000566918 -0.00472431
-0.000566918 0.000566918 -0.00151178
-0.0020787 0.00132281 -0.0105825
-0.00075589 0.000377945 0.00132281
-0.00075589 0.000188973 0.00377945
-0.000944863 0.000377945 0.00548021
-0.00510226 -0.00283459 0.00736993
-0.00548021 -0.00283459 0.013795
-0.00170075 0.000377945 0.0185193
0.00245664 0.00377945 0.0166296
0.00283459 0.00359048 0.0102045
-0.00245664 0 0.0247554
-0.00132281 0.000566918 -0.0213539
0.0122832 0.0213539 -0.0291018
0.0119053 0.0217318 -0.0442196
-0.00170075 0.00132281 -0.0512116
-0.0153068 -0.0200311 -0.0430858
-0.0151178 -0.0202201 -0.0281569
-0.0020787 0.00245664 -0.0684081
0.00151178 0.00302356 0.0302356
0.00226767 0.00264562 0.0103935
-0.013606 -0.00170075 -0.00434637
-0.0226767 -0.00472431 0.00132281
-0.0258892 -0.013606 0.00850377
0.0880612 0.0222988 0.0404401
-0.0283459 -0.000944863 -0.00170075
-0.0379835 -0.00699199 0.00264562
-0.0421409 -0.0175745 0.0100155
-0.0360938 -0.020976 0.0128501
0.138139 0.0188973 0.0710537
-0.0134171 -0.00188973 -0.00661404
-0.00359048 0.00245664 0.0253223
-0.000566918 0.00075589 -0.00944863
0.00321253 0.00113384 -0.0187083
-0.00812582 -0.00548021 0.00359048
-0.00869274 -0.00548021 0.0154958
0.00548021 0.00642507 0.020409
0.00604712 0.0062361 0.00869274
0.0228657 0.0362827 -0.0234326
0.0224877 0.0381725 -0.0502667
-0.0258892 -0.0366607 -0.048377
-0.0257003 -0.0370386 -0.0215429
-0.0020787 0.00642507 -0.106392
-0.0130391 -0.0272121 -0.0602823
0.00907068 0.0296687 -0.0544241
0 0.00170075 0.034771
0.00132281 0.00283459 0.0313695
0.00585815 0.00642507 0.0287238
-0.0253223 0.00642507 -0.00774788
-0.0423299 -0.00396842 0.000377945
-0.0500777 -0.0234326 0.0134171
-0.0396842 -0.0304246 0.0192752
-0.0100155 -0.00245664 0.0239995
Vibration 3
0.00188973 0.00340151 -0.00793685
0.00188973 0.00188973 -0.00510226
0.00340151 0.000944863 -0.00907068
0.00453534 0.00151178 -0.0153068
0.00434637 0.00340151 -0.0192752
0.00321253 0.00453534 -0.0177634
0.00718096 0.00548021 -0.0196532
0.00321253 0.00680301 -0.0243775
0.00359048 0.00888171 -0.0304246
0.000188973 0.00434637 0.00302356
0 -0.00718096 0.013606
-0.00075589 -0.00718096 0.0266451
-0.00151178 0.00453534 0.0292908
-0.00188973 0.0164406 0.0187083
-0.000944863 0.0160627 0.00548021
-0.00170075 0.00283459 0.0430858
0.00340151 0.000188973 -0.00264562
-0.00434637 -0.0391173 0.00132281
-0.0041574 -0.0396842 0.00888171
0.00359048 -0.000944863 0.0122832
0.0115273 0.0389284 0.0075589
0.0113384 0.0396842 0
0.00377945 -0.00188973 0.0211649
-0.00132281 0.0134171 0.0476211
0.00812582 0.00113384 -0.00774788
0.00340151 -0.00453534 -0.00869274
-0.00340151 -0.0188973 -0.00793685
-0.00453534 -0.020787 -0.00907068
-0.00245664 0.0496998 -0.0160627
-0.00888171 -0.0338261 -0.00718096
-0.0154958 -0.0508336 -0.00812582
-0.0168186 -0.0532903 -0.00982658
-0.0111494 -0.0383614 -0.0103935
-0.0128501 0.0782347 -0.0160627
0.00831479 -0.00075589 -0.00302356
0.00566918 -0.00226767 -0.000188973
0.00075589 0.00113384 0.00075589
0.0124722 0.0113384 -0.0253223
0.000566918 -0.0160627 0.0115273
-0.00075589 -0.0160627 0.0351489
-0.00264562 0.0257003 0.020409
-0.00113384 0.0251334 -0.00283459
-0.0100155 -0.0685971 -0.00151178
-0.0102045 -0.0702978 0.0122832
0.0175745 0.0699199 0.00982658
0.0171965 0.0712427 -0.00396842
0.0041574 -0.00472431 0.0478101
0.00907068 0.0198421 0.013795
-0.00170075 -0.0217318 0.00944863
-0.000566918 0.00869274 0.0597153
-0.00170075 0.0122832 0.0393063
-0.000944863 0.0260782 0.048566
-0.00774788 -0.0321253 -0.00548021
-0.0198421 -0.0625499 -0.0075589
-0.0222988 -0.0668963 -0.0103935
-0.0124722 -0.0406291 -0.0119053
0.00113384 -0.0111494 -0.00170075
Vibration 4
-0.0120942 -0.0109604 0.00472431
-0.0119053 -0.0096376 0.000944863
-0.0132281 -0.00888171 -0.00188973
-0.0147399 -0.0096376 -0.00529123
-0.013795 -0.0107714 0.00510226
-0.0132281 -0.0119053 0.0107714
-0.013984 -0.0119053 0.0103935
-0.0134171 -0.013984 0.0226767
-0.013795 -0.0162516 0.0334482
-0.0103935 -0.0119053 0.00151178
-0.0143619 -0.00472431 -0.0062361
-0.0128501 -0.00548021 -0.0109604
-0.00699199 -0.013606 -0.0075589
-0.00264562 -0.0211649 0.000188973
-0.00453534 -0.0200311 0.00472431
-0.00604712 -0.0134171 -0.0128501
-0.0132281 -0.0062361 0.00377945
-0.0215429 -0.0287238 0.00850377
-0.0213539 -0.0249444 0.0171965
-0.0128501 0.00151178 0.0211649
-0.00472431 0.0241885 0.0160627
-0.00491329 0.020787 0.00736993
-0.0126612 0.00585815 0.0311805
-0.000944863 -0.0213539 -0.0105825
-0.0181414 -0.0119053 -0.0215429
-0.00113384 -0.00434637 -0.00113384
0.0147399 0.0075589 -0.00925966
0.0128501 0.00642507 -0.0185193
0.0336371 0.0455424 -0.0151178
0.0326923 0.0232436 -0.00529123
0.0487549 0.0379835 -0.0113384
0.0466762 0.0364717 -0.020976
0.0287238 0.0202201 -0.0247554
0.0778567 0.0712427 0.0185193
-0.00604712 -0.00718096 0.000188973
-0.0130391 -0.00982658 -0.0349599
-0.0111494 -0.00907068 0
-0.0222988 -0.0154958 0.0219208
-0.0187083 0.00151178 -0.00850377
-0.0158737 0.000188973 -0.0170075
0.00188973 -0.02759 0.00283459
-0.00132281 -0.0257003 0.0105825
-0.0279679 -0.048188 0.00510226
-0.02759 -0.0425188 0.020976
0.0020787 0.0453534 0.0190862
0.00132281 0.0394953 0.00340151
-0.0162516 0.00453534 0.0574477
-0.00491329 0.0283459 0.0247554
-0.0170075 -0.0119053 0.020598
-0.00188973 -0.0188973 -0.0162516
-0.00188973 -0.0219208 -0.00113384
0.0041574 -0.0283459 -0.0132281
0.0340151 0.0239995 0.0020787
0.0627389 0.0508336 -0.00850377
0.0593374 0.048188 -0.0255113
0.0272121 0.0188973 -0.0334482
-0.00491329 -0.00548021 -0.034393
Vibration 5
0.00888171 -0.0132281 0.0100155
0.00888171 -0.0103935 0.0122832
0.0062361 -0.00888171 0.0062361
0.00340151 -0.0100155 0.000944863
0.00359048 -0.0126612 0.000944863
0.0062361 -0.0141729 0.00264562
0.00132281 -0.013606 0.000377945
0.0062361 -0.0160627 -0.00453534
0.0062361 -0.0170075 -0.0117163
0.00642507 -0.0119053 0.0134171
0.00869274 -0.0188973 0.020598
-0.00585815 -0.0107714 0.0158737
-0.0230547 0.00472431 0.00359048
-0.020598 0.00888171 0.000566918
-0.00529123 0 0.00566918
-0.0419519 0.0149288 -0.00434637
0.00642507 0 0.00491329
0.00793685 0.00831479 0.00396842
0.00888171 0.0321253 0.00245664
0.00793685 0.0464873 0.00170075
0.0062361 0.0321253 0.00245664
0.00566918 0.00888171 0.00396842
0.00831479 0.0801244 -0.0041574
-0.0680301 0.0372276 -0.0241885
-0.00188973 -0.00793685 -0.00604712
-0.000377945 -0.013984 0.00113384
0.00359048 -0.0132281 -0.00132281
0.00982658 0.00151178 -0.0062361
0.00434637 -0.00793685 -0.00831479
0.00132281 -0.02759 0.00075589
0.00661404 -0.0257003 -0.00226767
0.0141729 -0.00869274 -0.00718096
0.0158737 0.00491329 -0.00907068
0.0158737 -0.0175745 -0.00340151
-0.00340151 -0.0156847 0.00377945
0 -0.00245664 -0.0132281
0.0109604 -0.00907068 0.0179524
0.00113384 -0.0149288 0.000188973
0.020787 -0.0304246 0.0289128
-0.00510226 -0.0154958 0.020409
-0.0306136 0.0190862 -0.0062361
-0.00377945 0.00340151 0.00321253
0.00888171 -0.00170075 0.00453534
0.0096376 0.0406291 0.0020787
0.0062361 0.0406291 0.0020787
0.00472431 -0.000944863 0.00491329
-0.0171965 0.101856 -0.11773
0.0105825 -0.0103935 0.0364717
0.0309915 0.18028 0.0565028
-0.0842818 0.0449755 -0.0315584
-0.0510226 0.0568808 -0.0385504
-0.0886281 0.0258892 -0.0166296
-0.00434637 -0.0398732 0.00472431
0.00491329 -0.0370386 -0.000566918
0.0187083 -0.00642507 -0.00944863
0.0219208 0.0190862 -0.0128501
0.00491329 0.00491329 -0.0120942
Vibration 6
0.0105825 -0.0124722 0.0170075
0.0105825 -0.0117163 0.0192752
0.00982658 -0.0113384 0.0130391
0.00907068 -0.0117163 0.00869274
0.00888171 -0.0115273 0.00642507
0.0100155 -0.0124722 0.0109604
0.00774788 -0.0107714 -0.00453534
0.0100155 -0.0128501 0.0075589
0.0100155 -0.0130391 0.00453534
0.00982658 -0.0120942 0.0143619
0.0190862 -0.0147399 0.0192752
0.0128501 -0.0107714 0.0100155
-0.00377945 -0.0041574 -0.0041574
-0.0103935 -0.00359048 -0.00642507
-0.00321253 -0.00774788 0.00302356
-0.0119053 0.00113384 -0.0147399
0.0096376 -0.0096376 0.0041574
0.0194642 -0.0158737 -0.00188973
0.0194642 -0.0158737 -0.013606
0.00944863 -0.00869274 -0.0192752
-0.000377945 -0.000188973 -0.013606
0 -0.000377945 -0.00188973
0.00925966 -0.00925966 -0.0330702
-0.0351489 0.0122832 -0.0355268
0.0117163 -0.0153068 0.0107714
0.00472431 0.000377945 -0.0147399
-0.00245664 0.0130391 -0.00510226
-0.0162516 -0.020787 0.0113384
-0.0151178 0.0196532 0.00944863
0.00359048 0.0582036 -0.0124722
-0.00718096 0.0661404 -0.00264562
-0.0249444 0.0253223 0.013984
-0.0291018 -0.0185193 0.020409
-0.047999 0.0727545 0.000944863
0.0062361 -0.00075589 -0.0300466
0.00453534 -0.0122832 0.0272121
0.0109604 -0.0113384 0.0238105
0.00831479 -0.0164406 -0.0075589
0.0309915 -0.0192752 0.0292908
0.0196532 -0.0120942 0.0130391
-0.0211649 0.000377945 -0.0156847
-0.00850377 -0.00736993 0.00132281
0.02759 -0.020787 0.00264562
0.0270231 -0.0211649 -0.0183303
-0.00793685 0.00661404 -0.0179524
-0.00793685 0.00699199 0.00264562
0.0100155 -0.0062361 -0.0663294
-0.000566918 -0.0357158 -0.0257003
0.0183303 0.0143619 -0.020598
-0.0410071 0.0171965 -0.0440306
-0.0251334 0.0234326 -0.0500777
-0.0557469 0.00434637 -0.027779
0.0162516 0.0865495 -0.0257003
-0.00245664 0.102423 -0.00793685
-0.034771 0.0287238 0.0215429
-0.0436527 -0.0529123 0.0325033
-0.0041574 -0.020598 0.0266451
Vibration 7
0.0105825 -0.00510226 -0.00340151
0.0100155 -0.00566918 -0.0145509
0.00944863 -0.00491329 -0.0096376
0.00850377 -0.00529123 -0.0062361
0.00869274 -0.00548021 -0.0041574
0.00982658 -0.00604712 0.00736993
0.00774788 -0.0041574 -0.0145509
0.00907068 -0.0102045 0.0351489
0.00850377 -0.0151178 0.061794
0.00604712 -0.00302356 -0.0020787
-0.0457314 0.0226767 -0.0393063
-0.0582036 0.0296687 -0.0419519
-0.0162516 0.0109604 -0.00680301
0.0387394 -0.0158737 0.0319364
0.048566 -0.0215429 0.0334482
-0.0362827 0.0215429 -0.0153068
0.0096376 -0.00188973 -0.00434637
0.00359048 -0.00132281 -0.000566918
0.00377945 0.00661404 0.00680301
0.0105825 0.013795 0.0102045
0.0168186 0.0113384 0.00661404
0.0162516 0.00340151 -0.00075589
0.0107714 0.0239995 0.0194642
0.00226767 0.00529123 0.0202201
0.00982658 -0.00472431 -0.000566918
0.000566918 -0.00151178 -0.0156847
-0.00736993 -0.00113384 -0.00944863
-0.0107714 -0.0105825 -0.00151178
0.00302356 -0.00680301 -0.00188973
-0.0124722 0.00566918 -0.0130391
-0.0213539 0.00188973 -0.00812582
-0.0257003 -0.00907068 0
-0.0202201 -0.0151178 0.00302356
-0.0102045 -0.00548021 -0.00982658
0.00321253 -0.000944863 -0.0226767
0.00529123 -0.00302356 0.00944863
0.00982658 -0.00566918 -0.0249444
0.0109604 -0.0075589 -0.020598
-0.0771008 0.0374166 -0.0653845
-0.0999665 0.0496998 -0.0708647
0.0723765 -0.0315584 0.0597153
0.089573 -0.0400622 0.0608492
-0.00170075 -0.00642507 -0.00340151
-0.000944863 0.0075589 0.0096376
0.0219208 0.0160627 0.00907068
0.0215429 0.00170075 -0.00377945
0.00377945 0.0232436 0.0540462
0.020409 0.0555579 0.00982658
0.00831479 0.00113384 0.0041574
-0.027401 0.020787 0.00302356
0.00907068 0.0171965 0.0814472
0.048566 -0.0317474 -0.00151178
-0.00925966 0.013606 -0.0194642
-0.0253223 0.00699199 -0.0105825
-0.0330702 -0.0126612 0.00359048
-0.0234326 -0.0238105 0.0096376
0.000377945 -0.00604712 0.00925966
Vibration 8
0.00680301 -0.00453534 0.00661404
0.00680301 -0.00132281 0.00548021
0.0041574 0.000377945 0.00132281
0.00151178 -0.000944863 0.000188973
0.00151178 -0.00396842 0.00113384
0.0041574 -0.00566918 0.00359048
-0.00151178 -0.00510226 -0.000377945
0.0041574 -0.00812582 0.00226767
0.00396842 -0.00982658 0.000944863
0.0075589 -0.00491329 0.00888171
0.013984 -0.0105825 0.0158737
0.00831479 -0.00718096 0.0130391
-0.00453534 0.00170075 0.00302356
-0.00812582 0.00548021 -0.00113384
-0.00170075 0.00151178 0.0020787
-0.0126612 0.00642507 -0.00151178
0.0041574 0.00377945 -0.00264562
0.0075589 0.0124722 -0.00396842
0.00680301 0.0147399 -0.00774788
0.0041574 0.00850377 -0.0100155
0.00170075 0.000188973 -0.00736993
0.000944863 -0.0020787 -0.00359048
0.00434637 0.0041574 0.000566918
-0.0323143 0.0200311 -0.0175745
-0.00264562 0.00075589 -0.00226767
-0.00604712 -0.00529123 0.000944863
-0.00396842 -0.00302356 0
-0.000944863 0.00396842 -0.00188973
0.00396842 -0.00264562 0.000377945
-0.00491329 -0.00812582 0.00075589
-0.00226767 -0.00585815 -0.000188973
0.00132281 0.0020787 -0.0020787
0.0020787 0.00699199 -0.00264562
0.0062361 -0.00472431 0.00132281
-0.0102045 -0.0075589 0.00226767
-0.00302356 0.00529123 -0.00340151
0.00907068 0.000188973 0.0075589
-0.00132281 -0.0075589 -0.00151178
0.0230547 -0.0170075 0.0224877
0.0128501 -0.0109604 0.0175745
-0.0160627 0.0111494 -0.00718096
-0.00472431 0.0041574 -0.00113384
0.0096376 0.0170075 -0.00283459
0.0109604 0.020976 -0.0102045
-0.00245664 -0.00491329 -0.00944863
-0.00113384 -0.00869274 -0.00226767
0.0156847 -0.0410071 0.39722
0.0217318 0.353757 -0.144753
-0.0239995 -0.31445 -0.215051
-0.0389284 0.0234326 -0.0213539
-0.0228657 0.0306136 -0.0315584
-0.0493218 0.0158737 -0.0109604
-0.00774788 -0.013984 0.0020787
-0.00283459 -0.0100155 0.000377945
0.00359048 0.00434637 -0.00283459
0.00472431 0.0132281 -0.00396842
-0.00075589 0.00831479 -0.00321253
Vibration 9
0.00453534 0.00548021 0.02759
0.00453534 0.00982658 0.020787
0.0020787 0.0115273 0.00850377
-0.00075589 0.00982658 -0.00245664
-0.000377945 0.00661404 0.00321253
0.0020787 0.00434637 0.0281569
-0.0020787 0.00888171 -0.013795
0.00151178 0.00264562 0.0578256
0.000944863 0.00188973 0.0878723
0.0100155 0.00264562 0.0247554
0.027401 0.00434637 0.027401
0.0292908 0.0041574 0.013606
0.0122832 0.00188973 -0.00340151
-0.00188973 -0.00245664 -0.00340151
-0.00226767 -0.00226767 0.0111494
0.0119053 0.0041574 -0.0194642
0.00188973 0.0096376 0.00566918
0.00377945 0.00491329 0.00434637
0.00340151 -0.0122832 0.00188973
0.000566918 -0.0243775 0.000944863
-0.00151178 -0.0134171 0.0020787
-0.00075589 0.00377945 0.00434637
0.000377945 -0.0496998 -0.00340151
-0.0147399 0.00774788 -0.0472432
-0.00453534 0.0100155 -0.0154958
-0.00718096 0.0103935 -0.0143619
-0.0113384 0.00264562 -0.0134171
-0.00075589 0.0260782 -0.0179524
0.00472431 0.0113384 -0.0213539
-0.0268341 -0.0359048 -0.0117163
-0.0298577 -0.0504557 -0.0141729
-0.0170075 -0.0228657 -0.0185193
-0.0020787 0.0162516 -0.0202201
0.00925966 0.00774788 -0.0192752
-0.00264562 0.0122832 -0.0175745
-0.00264562 0.0156847 -0.0222988
0.00736993 0.0115273 0.0251334
0.00283459 0.00472431 -0.0217318
0.0391173 0.00680301 0.0394953
0.0425188 0.00604712 0.0149288
-0.0126612 -0.00566918 -0.0145509
-0.0134171 -0.00604712 0.0119053
0.00604712 0.0128501 0.00529123
0.00472431 -0.0175745 0.00113384
-0.00321253 -0.0194642 0.00132281
-0.00245664 0.0113384 0.00529123
0.0170075 -0.0508336 -0.0568808
-0.0111494 -0.103179 0.0149288
-0.00491329 -0.0151178 0.0241885
-0.0143619 0.0126612 -0.0606602
-0.00736993 0.0154958 -0.0638727
-0.0406291 -0.00188973 -0.0374166
-0.0360938 -0.05518 -0.00812582
-0.0421409 -0.0822031 -0.0126612
-0.0190862 -0.0326923 -0.020409
0.00812582 0.0391173 -0.0230547
0.000188973 0.0291018 -0.0188973
Vibration 10
0.0134171 -0.00510226 -0.00510226
0.0126612 0.00113384 -0.000566918
0.00699199 0.00510226 0.00132281
0.00151178 0.00188973 0.0020787
0.00075589 -0.00510226 -0.00245664
0.00699199 -0.00831479 -0.0109604
-0.00680301 -0.00982658 0.00226767
0.00680301 -0.0179524 -0.0279679
0.00661404 -0.027779 -0.0451645
0.013606 -0.00548021 -0.000944863
-0.00831479 0 -0.0111494
-0.0188973 0.00566918 -0.00925966
-0.00585815 0.00642507 0.00340151
0.0202201 -0.000944863 0.0168186
0.0292908 -0.0062361 0.0143619
-0.0224877 0.0145509 0.00113384
0.00699199 0.00718096 0.00226767
0.0075589 0.0351489 0.00226767
0.00718096 0.0188973 0.00264562
0.00585815 -0.0257003 0.00321253
0.00510226 -0.0455424 0.00359048
0.00566918 -0.0281569 0.00302356
0.00548021 -0.0531013 0.00245664
-0.0158737 0.0202201 0.0105825
-0.00850377 0.00661404 -0.00359048
-0.0156847 -0.0117163 0.0075589
-0.00699199 -0.00510226 0.00321253
0.00774788 0.027779 -0.00264562
-0.0120942 0.00982658 0.0119053
-0.0132281 -0.027779 0.00566918
-0.00132281 -0.0130391 0.00245664
0.0170075 0.0260782 -0.00302356
0.020787 0.0459203 -0.00510226
-0.0177634 0.0587705 0.0196532
-0.0289128 -0.0188973 0.0145509
-0.00566918 0.0141729 -0.013606
0.0170075 0.00359048 0.000944863
-0.00907068 -0.013984 0.0041574
-0.0183303 0 -0.020787
-0.0376055 0.0102045 -0.0179524
0.0326923 -0.00188973 0.0285349
0.048377 -0.0102045 0.0226767
0.00831479 0.0672742 0.00226767
0.00774788 0.0389284 0.00245664
0.0041574 -0.075967 0.0041574
0.00491329 -0.0428968 0.00377945
0.0241885 -0.0565028 -0.0364717
-0.00321253 -0.0956201 0.0171965
-0.00434637 -0.0300466 0.0241885
-0.0370386 0.0294797 0.00321253
-0.00529123 0.034204 0.0300466
-0.00340151 0.00188973 0.00396842
-0.0270231 -0.0561249 0.0102045
-0.00585815 -0.0304246 0.0041574
0.027779 0.0404401 -0.00566918
0.034771 0.0769118 -0.00907068
-0.00132281 0.027779 -0.00982658
Vibration 11
-0.0143619 -0.00245664 0.00548021
-0.013795 -0.0111494 0.00982658
-0.00642507 -0.0158737 0.0113384
0.00113384 -0.0117163 0.0096376
0.00075589 -0.00283459 0.00453534
-0.00699199 0.00132281 0.00510226
0.00982658 0.00170075 -0.00226767
-0.00642507 0.0111494 0.00510226
-0.00604712 0.0202201 0.0062361
-0.0187083 0 -0.00113384
-0.013606 0.0020787 -0.0020787
-0.00736993 -0.00113384 -0.00396842
-0.0062361 -0.0075589 -0.00472431
-0.0164406 -0.00699199 -0.00793685
-0.0228657 -0.00321253 -0.0062361
0.00604712 -0.013795 -0.00264562
-0.00661404 -0.0181414 0.00944863
-0.00132281 0.0215429 0.00699199
-0.000944863 0.0408181 0.00188973
-0.00585815 0.0185193 -0.000566918
-0.0111494 -0.0292908 0.00283459
-0.0117163 -0.0464873 0.00774788
-0.00566918 0.0478101 -0.00453534
0.0215429 -0.0300466 0.00774788
0.00831479 -0.013984 0.00510226
0.0349599 0.013984 -0.0217318
0.020787 0.00396842 -0.0132281
0.0304246 0.0222988 -0.00377945
-0.0187083 -0.0109604 0.0255113
-0.00529123 -0.0258892 -0.0173855
-0.0187083 -0.0353379 -0.0113384
-0.00548021 -0.0107714 -0.00132281
0.0194642 0.0192752 0.00264562
-0.0234326 0.0585815 0.0387394
0.0633058 0.027779 -0.0410071
0.0194642 -0.0260782 -0.0151178
-0.0198421 -0.0145509 0.0111494
0.0107714 0.00566918 -0.00170075
-0.0132281 0.0062361 -0.000566918
-0.0020787 0.000188973 -0.0041574
-0.0190862 -0.00982658 -0.0111494
-0.0302356 -0.00340151 -0.00793685
0.00226767 0.0396842 0.00869274
0.00377945 0.0748331 -0.00075589
-0.0153068 -0.0508336 0.00151178
-0.0160627 -0.0778567 0.0109604
-0.0247554 0.0517785 0.0306136
0.00188973 0.0880612 -0.0187083
0.00566918 0.0272121 -0.0251334
0.0376055 -0.0374166 0.013984
0.00774788 -0.0464873 0.0124722
0.0317474 -0.0185193 0.00453534
-0.013984 -0.0419519 -0.0243775
-0.0391173 -0.0604712 -0.0141729
-0.0149288 -0.0153068 0.00340151
0.0304246 0.0408181 0.0113384
0.0194642 -0.00831479 -0.00812582
Vibration 12
0.00113384 -0.00170075 -0.0385504
0.00170075 -0.00075589 -0.0640617
0.00264562 -0.00151178 -0.0449755
0.00377945 -0.000566918 -0.0217318
0.00510226 -0.00170075 -0.0124722
0.00359048 -0.00075589 -0.00982658
0.00359048 -0.00264562 -0.00510226
0.00321253 0.00510226 0.0326923
0.00283459 0.0134171 0.0738883
0.00113384 -0.00132281 -0.0279679
0.0151178 -0.0243775 -0.00302356
0.0164406 -0.0257003 0.0141729
0.00075589 -0.00359048 0.00529123
-0.0145509 0.0196532 -0.0194642
-0.0130391 0.0185193 -0.0349599
0.00321253 -0.00718096 0.0255113
0.00302356 -0.00226767 -0.0311805
-0.0156847 0.0219208 -0.0190862
-0.0156847 0.0249444 0.00491329
0.0041574 0.00188973 0.0162516
0.0232436 -0.0247554 0.00491329
0.0224877 -0.0262672 -0.0188973
0.00453534 0.00604712 0.0423299
-0.0185193 0.020409 0.0130391
0.00377945 0.00340151 -0.00132281
-0.00680301 -0.0107714 0.00566918
-0.00340151 -0.00850377 0.00321253
-0.00642507 -0.0149288 0.00188973
-0.00264562 -0.0107714 0.0226767
0.0041574 0.00491329 0.00359048
0.00850377 0.0134171 0.00321253
0.00548021 0.0075589 0.00245664
-0.00245664 -0.00661404 0.0020787
-0.0192752 0.0211649 0.0198421
-0.0170075 -0.0153068 0.0143619
0.00132281 -0.000377945 0.00718096
0.0020787 -0.000944863 -0.0890061
0.00340151 -0.00188973 -0.00491329
0.0255113 -0.041385 0.00170075
0.0289128 -0.0434637 0.0340151
-0.0266451 0.0376055 -0.0258892
-0.0224877 0.0334482 -0.0506447
-0.0319364 0.0383614 -0.0279679
-0.0308025 0.0451645 0.0141729
0.0385504 -0.0438416 0.0141729
0.0379835 -0.0449755 -0.027779
-0.000566918 0.0100155 0.0239995
0.0219208 -0.0156847 0.0595264
-0.0075589 0.0279679 0.0644397
-0.0124722 0.0109604 0.0332592
-0.0158737 0.0211649 -0.0251334
-0.041385 0.0470542 0.0243775
0.0062361 0.00944863 0.00359048
0.0143619 0.0243775 0.00340151
0.00944863 0.0143619 0.00188973
-0.0041574 -0.0107714 0.00226767
-0.000566918 -0.0103935 0.00321253
Vibration 13
0.00548021 0.000944863 -0.0109604
0.00529123 0.0105825 -0.0194642
-0.00377945 0.0156847 -0.0166296
-0.0122832 0.0107714 -0.00831479
-0.0128501 0.000944863 -0.00188973
-0.00434637 -0.00453534 -0.00604712
-0.0171965 -0.00434637 0.0117163
-0.00491329 -0.0188973 -0.00510226
-0.00566918 -0.034204 -0.00585815
0.0147399 -0.00453534 -0.00188973
0.00982658 -0.00604712 -0.00170075
0.0100155 -0.00642507 0.00453534
0.0143619 -0.0041574 0.00944863
0.0266451 -0.00642507 0.0147399
0.0266451 -0.00661404 0.00907068
0.00585815 0 0.0100155
-0.00359048 0.0202201 -0.0147399
-0.0102045 -0.0190862 -0.0113384
-0.0105825 -0.0338261 -0.00529123
-0.00434637 -0.00453534 -0.00245664
0.00245664 0.0434637 -0.00642507
0.00264562 0.0529123 -0.0126612
-0.00453534 -0.0268341 0.00396842
-0.0283459 0.027401 -0.0164406
-0.0258892 0.020787 0.000944863
0.020598 0.013606 -0.0170075
0.0171965 0.0100155 -0.0141729
0.0164406 0.00774788 -0.00812582
-0.0659514 -0.0338261 0.0846597
0.0100155 0.00510226 -0.0160627
0.00113384 -0.00529123 -0.013606
-0.000566918 -0.0102045 -0.00812582
0.00793685 -0.00321253 -0.0062361
-0.0102045 -0.0374166 0.11962
0.0447865 0.0257003 -0.0326923
-0.0128501 0.00925966 -0.020787
0.0119053 0.0145509 -0.0266451
-0.0264562 -0.00566918 0.0266451
0.00434637 -0.0062361 -0.00718096
0.00491329 -0.00736993 0.0041574
0.0355268 -0.00812582 0.0230547
0.0351489 -0.00774788 0.0122832
-0.0149288 -0.0394953 -0.013795
-0.0160627 -0.0685971 -0.00226767
0.00736993 0.0714316 -0.00472431
0.00812582 0.0808803 -0.0162516
0.0100155 -0.0317474 -0.00340151
-0.00793685 -0.0406291 0.00850377
-0.0156847 -0.0260782 0.0102045
-0.0491329 0.0377945 -0.027401
-0.00661404 0.0525344 -0.0340151
-0.0548021 0.0115273 -0.00699199
0.0115273 0.00850377 -0.0188973
-0.00491329 -0.0096376 -0.0149288
-0.00869274 -0.0194642 -0.00585815
0.00680301 -0.00642507 -0.00359048
-0.0128501 0.00548021 -0.0177634
Vibration 14
0 -0.0102045 -0.0268341
0.000377945 -0.00359048 -0.0400622
-0.00604712 -0.000188973 -0.0143619
-0.00944863 -0.00226767 0.0147399
-0.00982658 -0.00982658 0.0164406
-0.00491329 -0.0132281 -0.00434637
-0.013795 -0.0166296 0.0362827
-0.00529123 -0.0224877 -0.00075589
-0.00585815 -0.0328812 0.00113384
0.0041574 -0.0130391 -0.0217318
-0.000566918 -0.0224877 -0.0141729
-0.00113384 -0.0232436 0.000188973
0.0020787 -0.013795 0.00548021
0.00925966 -0.00585815 0.000377945
0.0103935 -0.00680301 -0.0130391
-0.00245664 -0.013606 0.0192752
-0.00604712 0.00888171 -0.0117163
-0.0111494 0.0151178 -0.00850377
-0.0113384 0.00850377 -0.00359048
-0.00736993 -0.00151178 -0.00113384
-0.00245664 0.00491329 -0.0041574
-0.00245664 0.0111494 -0.0096376
-0.0075589 -0.0202201 0.00472431
-0.0272121 0.0156847 0.00434637
-0.00831479 0.0128501 0.041574
0.0294797 0.00831479 -0.000566918
0.0147399 0.00812582 0.0117163
0.0257003 0.0268341 0.0304246
0.00491329 0.11036 -0.0349599
-0.0153068 -0.00850377 0.00359048
-0.0308025 -0.00264562 0.0153068
-0.0160627 0.0217318 0.0351489
0.0115273 0.0359048 0.0430858
0.0175745 -0.0309915 -0.0599043
0.0640617 0.0245664 -0.0298577
0.00661404 -0.0171965 0.0175745
0.00491329 -0.00113384 -0.0646286
-0.0243775 -0.0173855 0.0527234
-0.00453534 -0.0294797 -0.0200311
-0.00434637 -0.0302356 0.00585815
0.0143619 0.00075589 0.00699199
0.0164406 -0.00151178 -0.0162516
-0.0145509 0.0239995 -0.0107714
-0.0145509 0.00982658 -0.00170075
0.000944863 0.00434637 -0.00226767
0.00151178 0.0183303 -0.0119053
0.00529123 -0.0249444 0.00113384
-0.00944863 -0.0302356 0.00831479
-0.0185193 -0.0217318 0.00925966
-0.0387394 0.0173855 0.00944863
-0.0134171 0.0308025 -0.0187083
-0.0472432 0.0190862 0.0126612
-0.0258892 -0.0260782 -0.0115273
-0.0534792 -0.0164406 0.00944863
-0.0270231 0.0285349 0.0444086
0.0211649 0.0529123 0.0582036
0.00774788 -0.0170075 0.0196532
Vibration 15
0.00812582 -0.00812582 -0.0041574
0.00850377 -0.00774788 -0.00132281
0.00888171 -0.0075589 0.00548021
0.00944863 -0.00718096 0.0062361
0.00982658 -0.00774788 0.000188973
0.00944863 -0.00718096 0.00075589
0.00661404 -0.00812582 -0.00793685
0.0096376 -0.00226767 0.0103935
0.0096376 0.00491329 0.0226767
0.000188973 -0.00321253 -0.0100155
0.00548021 -0.0124722 -0.000188973
-0.0075589 -0.00529123 -0.00396842
-0.0241885 0.00925966 -0.0160627
-0.0349599 0.0211649 -0.0294797
-0.0222988 0.0134171 -0.0262672
-0.0319364 0.0130391 -0.0149288
0.00925966 -0.0041574 0.00453534
0.013984 -0.0302356 0.00132281
0.0141729 -0.0336371 -0.00661404
0.00944863 -0.00226767 -0.0100155
0.00453534 0.0328812 -0.00718096
0.00491329 0.0294797 0.000377945
0.00925966 -0.00585815 -0.0188973
0.0317474 -0.0194642 0.0419519
0.00869274 -0.00226767 0.00491329
-0.00888171 -0.00831479 -0.00340151
-0.00831479 0 -0.00075589
0.00699199 0.0313695 0.00453534
-0.0128501 0.0075589 0.0196532
-0.0247554 -0.020409 -0.00264562
-0.0196532 0 0.000377945
0.000188973 0.0391173 0.00566918
0.0115273 0.0504557 0.00793685
-0.00396842 -0.0154958 0.0200311
-0.0200311 -0.0151178 -0.00377945
0.0102045 -0.00699199 0.00340151
0.00831479 -0.00774788 -0.00434637
0.00925966 -0.0124722 -0.013984
0.020598 -0.0257003 0.0107714
-0.00245664 -0.0119053 0.00359048