[Molden Format]
[FREQ]
-592.1
14.4
22.3
26.0
30.8
37.3
38.6
43.2
51.1
58.2
69.4
80.3
86.7
100.5
112.1
128.7
132.8
145.0
160.2
167.8
183.2
189.9
206.8
222.3
232.9
242.6
256.0
273.8
286.3
302.0
310.2
316.9
332.0
350.2
352.2
357.1
367.6
387.3
410.7
426.9
443.6
462.9
478.9
494.6
502.0
520.2
543.5
546.9
558.1
563.0
578.8
602.6
612.0
618.5
624.1
626.2
637.5
648.9
664.4
687.5
703.0
718.0
736.4
747.3
754.4
759.5
800.1
817.9
838.0
853.6
864.1
881.1
883.1
894.7
900.4
930.4
937.6
944.4
991.3
995.7
1007.8
1009.0
1013.1
1015.1
1018.4
1031.9
1039.7
1043.0
1070.8
1079.6
1081.8
1094.9
1126.4
1127.3
1143.6
1173.8
1178.9
1179.3
1182.6
1207.7
1223.0
1246.8
1262.3
1266.6
1273.6
1275.3
1281.7
1283.4
1287.0
1294.9
1299.1
1307.4
1320.3
1326.5
1330.7
1341.4
1346.9
1348.5
1351.6
1368.8
1380.1
1392.5
1410.4
1422.9
1473.1
1496.8
1519.7
1525.4
1533.2
1534.2
1585.0
1587.3
1644.5
1697.0
1698.0
1707.2
1707.4
1718.6
1755.1
1760.2
1790.8
1835.5
2076.5
2448.1
2652.6
2654.3
2665.6
2672.2
2742.5
2743.0
2745.4
2747.1
2747.8
2751.2
2760.1
2760.7
2762.8
2764.1
2764.6
2765.2
2766.3
2771.7
2772.3
2778.7
2789.0
       
[FR-COORD]
C -2.47422 -3.03792 0.0782347
C 0.214106 -3.03792 0.0782347
C 1.54183 -0.803889 0.0782347
N 0.306514 1.48948 0.174611
C -2.32417 1.54958 0.913494
C -3.72238 -0.796897 0.42859
N -3.06646 3.59237 1.98138
C -6.38179 -0.608492 0.432369
N -8.56537 -0.443708 0.440495
C -3.79249 -5.44203 -0.304624
C -5.5163 -5.71 -2.2998
C -6.74897 -7.9856 -2.68209
C -6.25594 -10.0027 -1.02366
C -4.55443 -9.76667 0.976988
C -3.3176 -7.46876 1.31487
O -7.58574 -12.1143 -1.61194
C 4.32558 -0.927666 -0.0321253
C 5.78143 0.0863605 1.92299
C 8.39908 -0.132281 1.85363
C 9.57808 -1.3623 -0.166296
C 8.11297 -2.38729 -2.11101
C 5.494 -2.1781 -2.04298
C 12.3856 -1.55165 -0.240751
C -7.30681 -14.241 0.00434637
C -0.150233 5.74326 -2.13331
C 1.56583 7.69685 -3.29512
C 0.67879 7.96104 0.504368
C 1.76973 5.86571 1.68942
C 1.53654 3.89359 -0.373221
C 0.240373 10.1951 1.71417
C 1.03444 10.3258 4.25245
C 2.17205 8.26982 5.43655
C 2.54527 5.96303 4.16779
O 3.86695 3.60957 -1.53238
O 2.74256 9.37606 -3.98468
O -2.23271 5.42559 -2.97972
H 1.20999 -4.83354 0.0241885
H 3.84692 2.41885 -2.96611
H -5.88631 -4.1128 -3.55514
H -8.09407 -8.23354 -4.21617
H -4.1865 -11.3219 2.25803
H -1.98081 -7.24861 2.87012
H 4.86378 1.05787 3.49259
H 9.5348 0.669152 3.36938
H 9.02193 -3.35483 -3.68119
H 4.35487 -3.00183 -3.55004
H 13.2415 0.295364 -0.678979
H 13.068 -2.88996 -1.67297
H 13.1689 -2.16714 1.58378
H -8.59372 -15.6201 -0.865117
H -7.92116 -13.7942 1.92828
H -5.36342 -14.9451 -0.0296687
H -0.673876 11.7932 0.812015
H 0.734914 12.067 5.30465
H 2.76032 8.42912 7.40111
H 3.36352 4.35298 5.13495
H -4.87096 3.89794 2.47252

[FR-NORM-COORD]
Vibration 1
-0.00132281 0.00075589 0.000377945
0.00113384 0.00434637 -0.000188973
0.00151178 0.00170075 -0.000377945
-0.00321253 0.00699199 -0.00245664
-0.00170075 0.0020787 0.00377945
0.000188973 0.000566918 0
0.000188973 0.00359048 -0.00264562
-0.000377945 0.000377945 0.000377945
-0.000188973 -0.000188973 -0.000188973
0.000377945 0.000566918 0
0 0.000188973 0
0 0.000377945 0
-0.000188973 -0.000188973 0
0.000188973 0.000377945 0
0.000188973 0.000188973 -0.000188973
0.000188973 0.000377945 0.000188973
0.000188973 0.00075589 0.000188973
0.000188973 0.000566918 0.000188973
0.000188973 0.000188973 0
0.000188973 0 0
-0.000188973 0 0
0 0 0
-0.000188973 0 -0.000188973
0 0 0.000188973
0.0905179 -0.221476 -0.335237
-0.144186 0.0593374 0.348277
0.209193 0.166863 -0.0355268
-0.0103935 0.0442196 -0.0517785
-0.00907068 0.013984 -0.0119053
0.0404401 0.0697309 0.0315584
-0.0166296 0.00831479 0.0428968
-0.00321253 -0.00944863 0.000566918
-0.0349599 -0.00113384 -0.0260782
0.00453534 -0.0062361 0.0107714
-0.0459203 -0.0769118 0.0222988
-0.047999 -0.0351489 -0.00944863
0.000377945 0.00302356 0.00188973
0.0260782 -0.0062361 0.00869274
0 -0.000377945 -0.000188973
0 0.000188973 -0.000188973
0 0.000188973 0.000377945
0 0 0.000188973
0.000944863 0.00151178 0.00075589
0.000188973 0.00132281 -0.000188973
-0.000188973 0.000566918 -0.000377945
0.000566918 -0.000566918 0.000188973
-0.000188973 0.000377945 -0.000188973
0.000377945 0.000377945 -0.000188973
0.000566918 0.000377945 -0.000188973
-0.000188973 0.000377945 -0.000377945
-0.000188973 -0.000188973 0.000188973
0 -0.000188973 0
0.0591484 0.0786126 0.02759
-0.0292908 -0.013795 0.0748331
0.0168186 -0.0298577 -0.00396842
-0.069164 -0.0226767 -0.034582
0.00359048 0.0062361 0.0102045
Vibration 2
-0.000566918 -0.000566918 -0.0170075
-0.000944863 0.0020787 -0.0132281
-0.00283459 0.00340151 -0.0156847
-0.0041574 0.00264562 -0.0213539
-0.00736993 0.00226767 -0.0325033
-0.00377945 -0.000188973 -0.0304246
-0.013795 0.00472431 -0.041385
-0.00396842 -0.00264562 -0.041574
-0.0041574 -0.00491329 -0.0523454
0.00170075 -0.0041574 -0.00396842
0.013795 -0.0224877 -0.0119053
0.0141729 -0.0253223 0.00359048
0.00245664 -0.00907068 0.0268341
-0.00888171 0.00925966 0.034393
-0.00888171 0.0117163 0.0187083
0.0041574 -0.013984 0.0404401
-0.00264562 0.00340151 -0.0149288
-0.00264562 -0.00510226 -0.0105825
-0.00264562 -0.00491329 -0.0117163
-0.00283459 0.00340151 -0.0170075
-0.00302356 0.0117163 -0.0211649
-0.00302356 0.0115273 -0.0202201
-0.00283459 0.00396842 -0.0183303
-0.013606 0.00510226 0.0684081
0.0134171 0.0183303 -0.000377945
0.0251334 0.0224877 0.0215429
0.0041574 0.000566918 0.0181414
-0.00491329 -0.00888171 0.0100155
0.000944863 0.00453534 -0.00359048
0.00188973 -0.00661404 0.0306136
-0.0103935 -0.0243775 0.0353379
-0.0194642 -0.0338261 0.02759
-0.0170075 -0.0262672 0.0143619
0.00548021 0.00736993 0.00472431
0.0325033 0.0247554 0.0394953
0.0185193 0.0285349 -0.0160627
0.00075589 0.00302356 -0.00869274
0.00907068 0.0164406 -0.00283459
0.0224877 -0.034582 -0.0296687
0.0232436 -0.0396842 -0.00188973
-0.0173855 0.0217318 0.0517785
-0.0173855 0.0260782 0.0238105
-0.00245664 -0.0115273 -0.00661404
-0.00264562 -0.0113384 -0.00850377
-0.00321253 0.0179524 -0.0251334
-0.00321253 0.0177634 -0.0234326
-0.00359048 0.00396842 -0.0198421
-0.00359048 0.00340151 -0.0181414
-0.00151178 0.00510226 -0.0187083
-0.00831479 -0.00321253 0.0738883
-0.0296687 0.0294797 0.0576366
-0.0143619 0.00132281 0.0941084
0.00907068 0.00075589 0.0364717
-0.0126612 -0.0306136 0.0451645
-0.0287238 -0.0476211 0.0315584
-0.0243775 -0.0336371 0.00793685
-0.0160627 0.00510226 -0.0504557
Vibration 3
-0.0120942 0.00736993 -0.00359048
-0.0119053 0.00680301 -0.0100155
-0.0100155 0.00566918 -0.0102045
-0.00736993 0.00680301 -0.0119053
-0.00793685 0.0103935 -0.0147399
-0.0096376 0.00888171 -0.00321253
-0.00850377 0.0166296 -0.0266451
-0.00944863 0.0103935 0.0102045
-0.00925966 0.0126612 0.0221098
-0.0103935 0.00548021 0.00434637
-0.0495108 0.0115273 0.0372276
-0.041196 0.0062361 0.0408181
0.00774788 -0.00642507 0.0105825
0.0447865 -0.0122832 -0.0200311
0.034204 -0.00642507 -0.0230547
0.0130391 -0.0111494 0.0162516
-0.0100155 -0.000188973 -0.00661404
-0.0109604 -0.00736993 -0.00226767
-0.0115273 -0.0177634 0.00396842
-0.0115273 -0.020787 0.00585815
-0.0105825 -0.0119053 0.000566918
-0.0100155 -0.00151178 -0.00566918
-0.0120942 -0.0340151 0.0141729
0.0763449 -0.0311805 -0.020976
0.0111494 0.0122832 -0.00850377
0.0230547 0.00925966 0.00226767
0.0062361 0.00661404 -0.00170075
-0.0041574 0.00188973 -0.000377945
-0.000944863 0.00566918 -0.00434637
0.00699199 0.00566918 0.000188973
-0.00340151 -0.000566918 0.00377945
-0.013606 -0.00548021 0.00529123
-0.0143619 -0.00434637 0.00302356
0.00302356 0.0020787 0.00434637
0.0317474 0.00680301 0.0107714
0.0147399 0.0202201 -0.0196532
-0.0122832 0.00661404 -0.0134171
0.00510226 0.00661404 0.000377945
-0.0857936 0.0198421 0.0583925
-0.0704868 0.0113384 0.0655735
0.0806913 -0.0213539 -0.041385
0.061983 -0.0111494 -0.0461093
-0.0109604 -0.00510226 -0.00377945
-0.0120942 -0.0238105 0.0075589
-0.0105825 -0.0132281 0.00151178
-0.00944863 0.00510226 -0.00982658
-0.00113384 -0.0349599 0.0313695
-0.013606 -0.0264562 0.00661404
-0.0221098 -0.0519675 0.0124722
0.0699199 -0.0328812 -0.00869274
0.119053 -0.0653845 0.000566918
0.0833369 -0.00925966 -0.0791795
0.0149288 0.00944863 -0.00113384
-0.00321253 -0.00151178 0.00529123
-0.0215429 -0.0100155 0.00793685
-0.0226767 -0.00793685 0.00377945
-0.00869274 0.0202201 -0.0298577
Vibration 4
-0.0102045 -0.00170075 -0.00510226
-0.00982658 -0.000944863 -0.00151178
-0.0113384 -0.000566918 -0.00245664
-0.0134171 -0.00113384 -0.0120942
-0.0122832 -0.00075589 -0.00888171
-0.0113384 -0.00170075 -0.00982658
-0.0096376 -0.0020787 -0.00510226
-0.0113384 -0.00188973 -0.0147399
-0.0115273 -0.00188973 -0.0194642
-0.0075589 -0.00359048 -0.00226767
-0.00925966 -0.00831479 -0.000188973
-0.00434637 -0.0113384 0.0020787
0.0020787 -0.00982658 0.0020787
0.00302356 -0.00472431 0.00075589
-0.0020787 -0.00170075 -0.00151178
0.00718096 -0.0134171 0.00377945
-0.0107714 0.00472431 0.00774788
-0.0241885 -0.0185193 0.0294797
-0.0228657 -0.00774788 0.0387394
-0.00907068 0.0255113 0.0268341
0.00359048 0.0453534 0.00661404
0.00245664 0.034771 -0.00302356
-0.00793685 0.0396842 0.0351489
0.0160627 -0.0130391 0.00264562
-0.0166296 0.00907068 0.00472431
-0.0153068 0.00226767 -0.00585815
0.020409 -0.000944863 0.00321253
0.0185193 -0.0105825 -0.0119053
-0.0103935 -0.00359048 -0.0147399
0.0476211 -0.000377945 0.0120942
0.0735103 -0.0105825 0.00434637
0.0708647 -0.020787 -0.0107714
0.0427078 -0.020598 -0.0190862
-0.0224877 -0.0115273 -0.0379835
-0.0124722 -0.00245664 -0.0126612
-0.0255113 0.0239995 0.0213539
-0.00850377 -0.000377945 0.0020787
-0.0398732 -0.0149288 -0.034771
-0.013984 -0.00982658 -0.00075589
-0.00529123 -0.0151178 0.00340151
0.0075589 -0.00321253 0.00132281
-0.00151178 0.0020787 -0.00245664
-0.0353379 -0.0466762 0.0400622
-0.0330702 -0.0249444 0.055369
0.0147399 0.0697309 -0.0020787
0.0124722 0.0495108 -0.0183303
-0.0170075 0.0432747 0.0323143
0.00245664 0.0396842 0.0398732
-0.00850377 0.048566 0.0381725
0.0198421 -0.0170075 0.00359048
0.0168186 -0.0156847 0.00340151
0.0183303 -0.00661404 0.000377945
0.0498888 0.0075589 0.0239995
0.096376 -0.0103935 0.0105825
0.0916517 -0.0287238 -0.0162516
0.0417629 -0.027779 -0.0302356
-0.00907068 -0.000188973 -0.00434637
Vibration 5
0.0122832 -0.00925966 -0.0177634
0.0122832 -0.00642507 -0.0306136
0.00982658 -0.00510226 -0.0198421
0.00793685 -0.0062361 -0.0130391
0.00925966 -0.00925966 -0.00907068
0.0117163 -0.0120942 -0.000566918
0.00718096 -0.0075589 -0.013606
0.0109604 -0.0188973 0.0294797
0.0107714 -0.0243775 0.0570697
0.0075589 -0.00699199 -0.0154958
-0.0188973 0.00604712 0.00548021
-0.0353379 0.0134171 0.0154958
-0.0247554 0.00699199 0.00453534
0.00604712 -0.00793685 -0.0198421
0.0219208 -0.0151178 -0.0298577
-0.0478101 0.0173855 0.0200311
0.0107714 0.00151178 -0.00869274
-0.00453534 -0.0145509 0.0113384
-0.00340151 -0.00245664 0.0236216
0.0132281 0.0258892 0.0160627
0.0281569 0.0402512 -0.00302356
0.0268341 0.02759 -0.0153068
0.0145509 0.041574 0.027779
-0.048377 0.0164406 0.0190862
0.00774788 -0.00510226 -0.00982658
0.00718096 0.000566918 -0.00170075
-0.00529123 -0.00699199 -0.00453534
-0.00264562 -0.00566918 -0.00453534
0.00642507 -0.00377945 -0.00718096
-0.0153068 -0.0102045 -0.00226767
-0.0226767 -0.0119053 0.000188973
-0.0192752 -0.0102045 0
-0.00869274 -0.00699199 -0.00264562
0.00982658 0.00075589 -0.00113384
0.00566918 0.0041574 0.00472431
0.0113384 -0.00869274 -0.0175745
0.0141729 -0.00491329 -0.0440306
0.0141729 0.00661404 -0.00604712
-0.027401 0.0111494 0.0143619
-0.0570697 0.0245664 0.0326923
0.0168186 -0.0141729 -0.0302356
0.0447865 -0.0266451 -0.0478101
-0.0177634 -0.0364717 0.0171965
-0.0153068 -0.0145509 0.0389284
0.041196 0.0614161 -0.00850377
0.0387394 0.0385504 -0.0300466
0.00510226 0.0457314 0.0268341
0.02759 0.0425188 0.0330702
0.0117163 0.0502667 0.0317474
-0.0729434 0.0281569 0.0370386
-0.0194642 0.0245664 0.0264562
-0.0557469 -0.00264562 -0.00491329
-0.0177634 -0.0115273 -0.00226767
-0.0311805 -0.0145509 0.00226767
-0.0247554 -0.0113384 0.00170075
-0.00585815 -0.00604712 -0.00340151
0.00736993 -0.00944863 -0.0117163
Vibration 6
-0.0107714 -0.00604712 0.0200311
-0.0107714 -0.0075589 0.0222988
-0.0100155 -0.00812582 0.0160627
-0.00925966 -0.00680301 0.00453534
-0.0105825 -0.00132281 -0.00132281
-0.0100155 -0.00472431 0.0147399
-0.0132281 0.00907068 -0.0224877
-0.0103935 -0.0075589 0.0232436
-0.0105825 -0.0105825 0.0323143
-0.0115273 -0.00510226 0.0162516
-0.00075589 -0.0020787 0.0062361
0.00340151 -0.0020787 -0.00566918
-0.00396842 -0.00548021 -0.0075589
-0.0175745 -0.0075589 0.0041574
-0.0211649 -0.00718096 0.0162516
0.00359048 -0.00604712 -0.0224877
-0.0100155 -0.00548021 0.0130391
-0.00680301 0.0126612 0.00132281
-0.00510226 0.0372276 -0.0151178
-0.00680301 0.0428968 -0.0194642
-0.0103935 0.0160627 -0.00264562
-0.0119053 -0.00812582 0.013606
-0.00510226 0.0810692 -0.0457314
0.00188973 -0.0126612 -0.0309915
0.0166296 -0.00340151 -0.00510226
0.0436527 -0.0222988 0.000188973
0.020976 -0.00170075 -0.00661404
-0.00396842 -0.00793685 0.00548021
-0.00302356 -0.00944863 0.00680301
0.0323143 0.00491329 -0.0149288
0.0158737 0.0041574 -0.00982658
-0.0111494 -0.00340151 0.00321253
-0.0215429 -0.00925966 0.0111494
0.00151178 -0.0151178 0.0158737
0.0693529 -0.0385504 0.00453534
0.0194642 0.0122832 -0.0166296
-0.0115273 -0.00812582 0.0289128
0.00321253 -0.0117163 0.0130391
0.00529123 0.000377945 0.0075589
0.0124722 0 -0.013984
-0.0249444 -0.00944863 0.00396842
-0.0309915 -0.00907068 0.0249444
-0.00529123 0.0109604 0.00340151
-0.00283459 0.0546131 -0.0258892
-0.0117163 0.0160627 -0.00340151
-0.0143619 -0.0262672 0.0253223
-0.0393063 0.0778567 -0.126801
-0.00340151 0.0372276 -0.0041574
0.0285349 0.162516 -0.0328812
0.0117163 -0.0132281 -0.0449755
-0.0109604 -0.0238105 -0.0325033
0.00453534 -0.00585815 -0.0230547
0.0525344 0.0107714 -0.0251334
0.0239995 0.00925966 -0.0160627
-0.0243775 -0.0041574 0.00736993
-0.0430858 -0.0143619 0.020787
-0.0141729 0.0143619 -0.0296687
Vibration 7
-0.00170075 0.00396842 0.00453534
-0.00245664 0.00699199 -0.0141729
-0.00585815 0.00869274 -0.0147399
-0.00793685 0.00736993 -0.0128501
-0.00585815 0.00699199 -0.00566918
-0.00321253 0.000377945 0.0194642
-0.00736993 0.0158737 -0.0232436
-0.00453534 -0.0149288 0.062361
-0.00548021 -0.0309915 0.102801
0.000188973 0.00245664 0.00548021
0.0370386 -0.0103935 -0.0241885
0.0468652 -0.0141729 -0.0330702
0.0179524 -0.00302356 -0.0107714
-0.0222988 0.0122832 0.0217318
-0.0296687 0.0151178 0.0294797
0.034771 -0.0096376 -0.0251334
-0.00566918 0.00699199 -0.0130391
-0.00944863 -0.020976 0.00434637
-0.0105825 -0.0368497 0.0149288
-0.00812582 -0.0234326 0.00793685
-0.00453534 0.0100155 -0.0122832
-0.00359048 0.0249444 -0.0228657
-0.00925966 -0.0472432 0.0249444
0.000377945 0.00340151 -0.00188973
0.000188973 0.0120942 -0.0100155
0.0075589 0.0107714 -0.00453534
0.00075589 0.00831479 -0.0062361
-0.00472431 0.00491329 -0.00736993
-0.00585815 0.0075589 -0.0096376
0.00434637 0.00793685 -0.0041574
0.0020787 0.00340151 -0.00321253
-0.00321253 -0.000188973 -0.00434637
-0.00661404 0.000377945 -0.00661404
-0.00453534 0.00510226 -0.00680301
0.0119053 0.00982658 0.000377945
0.0020787 0.0185193 -0.0168186
-0.000944863 0.00793685 -0.0226767
-0.00604712 0.0113384 -0.0119053
0.0583925 -0.0175745 -0.0394953
0.0765339 -0.0260782 -0.0570697
-0.0464873 0.0215429 0.0398732
-0.0585815 0.0270231 0.0525344
-0.0113384 -0.0326923 0.0103935
-0.0128501 -0.0610381 0.0294797
-0.00264562 0.0232436 -0.0194642
-0.00113384 0.0487549 -0.0374166
0.0122832 -0.0428968 0.0854156
-0.00982658 -0.0124722 -0.00774788
-0.0309915 -0.107525 0.013984
0.0228657 -0.00548021 -0.0211649
-0.0453534 0.0179524 -0.0198421
0.00226767 0.0062361 0.0493218
0.00907068 0.0109604 -0.00340151
0.00453534 0.00283459 -0.00151178
-0.00472431 -0.00359048 -0.00359048
-0.0100155 -0.00226767 -0.00831479
-0.00661404 0.0171965 -0.0213539
Vibration 8
0.00321253 -0.00321253 -0.0130391
0.00302356 0.00170075 -0.0196532
0.000188973 0.00377945 -0.0170075
-0.00585815 0.00151178 -0.0183303
-0.0041574 -0.00302356 -0.0122832
-0.000377945 -0.00680301 -0.0041574
-0.00548021 -0.00188973 -0.0153068
-0.00113384 -0.0166296 0.0177634
-0.00188973 -0.0262672 0.0383614
0.00510226 -0.00472431 -0.0117163
0.00170075 -0.00472431 -0.00869274
-0.00113384 -0.00396842 -0.00472431
-0.00075589 -0.00264562 -0.00340151
0.00491329 -0.00340151 -0.00812582
0.00793685 -0.00453534 -0.0124722
-0.00604712 -0.00113384 0.00245664
0.000188973 0.00736993 -0.0100155
-0.00245664 0.0729434 -0.041385
-0.00264562 0.0716206 -0.0279679
0.0020787 0.00151178 0.0173855
0.00642507 -0.062361 0.047999
0.0062361 -0.0576366 0.0338261
0.0020787 -0.0062361 0.0353379
-0.0171965 0.00529123 0.0130391
-0.0100155 0.0154958 0.00132281
-0.00548021 0.013795 0.0020787
0.00718096 0.00396842 0.00661404
0.000944863 -0.00472431 -0.00359048
-0.00888171 0.00434637 -0.0119053
0.0196532 0.00188973 0.0153068
0.0247554 -0.0103935 0.0141729
0.0158737 -0.020409 0.00548021
0.00283459 -0.0173855 -0.00359048
-0.013606 0.00831479 -0.0236216
-0.0020787 0.0126612 0.00510226
-0.013795 0.0281569 0.00642507
0.00510226 0.00302356 -0.0215429
-0.0156847 -0.00075589 -0.0160627
0.00075589 -0.00529123 -0.00907068
-0.00434637 -0.00377945 -0.0020787
0.00680301 -0.00321253 -0.00831479
0.0120942 -0.00491329 -0.0158737
-0.00566918 0.126045 -0.075778
-0.00604712 0.123777 -0.0527234
0.00944863 -0.115651 0.08277
0.0105825 -0.104313 0.0559359
0.0105825 -0.0122832 0.0266451
0.00774788 -0.0192752 0.0502667
-0.0122832 0.00566918 0.0455424
-0.0238105 0.0075589 0.0192752
-0.0154958 0.0177634 0.0107714
-0.020598 -0.00434637 0.0170075
0.0253223 0.00907068 0.0224877
0.0355268 -0.0122832 0.020598
0.0188973 -0.0306136 0.00529123
-0.00566918 -0.0245664 -0.00812582
-0.00510226 -0.00283459 -0.0134171
Vibration 9
-0.000377945 -0.00377945 0.00321253
-0.000188973 -0.00321253 0.00642507
-0.00075589 -0.00283459 0.00529123
-0.00151178 -0.00302356 0.0041574
-0.0020787 -0.00359048 0.0020787
-0.00113384 -0.00359048 0.000188973
-0.00302356 -0.00377945 0.00170075
-0.00113384 -0.00340151 -0.0062361
-0.00113384 -0.00302356 -0.0122832
-0.000377945 -0.00359048 0.00170075
-0.00283459 -0.000944863 0.00359048
-0.00510226 0.000377945 0.00302356
-0.00453534 -0.00151178 0.00075589
-0.00113384 -0.00453534 -0.00170075
0.00075589 -0.00566918 -0.00113384
-0.0075589 0.000377945 0.000944863
-0.00075589 -0.000188973 0.00245664
0.00132281 0.0103935 -0.00396842
0.00132281 0.0194642 -0.0109604
0.000566918 0.0181414 -0.0117163
-0.000944863 0.00585815 -0.00302356
-0.0020787 -0.00302356 0.0041574
0.000944863 0.020598 -0.00188973
-0.00718096 -0.00132281 -0.00132281
0.00132281 -0.00245664 0.00188973
0.00793685 -0.0096376 -0.000377945
0.00585815 0 -0.00113384
-0.0020787 -0.00151178 0.00340151
-0.0020787 -0.00283459 0.00453534
0.0115273 0.00321253 -0.00529123
0.00831479 0.00472431 -0.00434637
-0.000944863 0.00245664 0.00075589
-0.00642507 -0.000566918 0.00472431
-0.00113384 -0.00226767 0.00566918
0.0160627 -0.0160627 -0.00188973
0.000566918 0.00188973 0.00245664
0.000188973 -0.00283459 0.00869274
0 -0.00170075 0.00529123
-0.00340151 0.000188973 0.00510226
-0.00736993 0.00283459 0.00472431
-0.000377945 -0.00604712 -0.00377945
0.00302356 -0.00812582 -0.00264562
0.0020787 0.0122832 -0.00472431
0.0041574 0.0268341 -0.0168186
-0.00340151 0.00245664 -0.00226767
-0.00302356 -0.0120942 0.0096376
0.0309915 0.116029 0.464117
0.0279679 0.358481 -0.304057
-0.0559359 -0.425377 -0.126045
-0.00944863 0.000566918 -0.000944863
-0.00434637 -0.00245664 -0.000188973
-0.00793685 -0.00302356 -0.00434637
0.0183303 0.00491329 -0.00907068
0.0128501 0.00736993 -0.0075589
-0.00396842 0.00340151 0.00151178
-0.013606 -0.0020787 0.00869274
-0.00340151 -0.00377945 0.000377945
Vibration 10
0.00377945 -0.00510226 -0.0181414
0.00340151 0.00340151 -0.0187083
-0.00283459 0.00718096 -0.00283459
-0.00812582 0.00321253 0.0160627
-0.0102045 -0.00907068 0.0109604
-0.00264562 -0.0103935 -0.00566918
-0.0158737 -0.0170075 0.0221098
-0.00340151 -0.020787 -0.00793685
-0.0041574 -0.0321253 -0.0109604
0.0120942 -0.00888171 -0.0236216
0.00132281 -0.0105825 -0.013795
0.000188973 -0.0113384 -0.0062361
0.0096376 -0.0105825 -0.00812582
0.0283459 -0.0122832 -0.0238105
0.0292908 -0.0117163 -0.0317474
0.00075589 -0.00907068 0.00642507
-0.00283459 0.00982658 -0.00585815
0 -0.000566918 -0.00283459
-0.00075589 -0.0119053 -0.00188973
-0.00472431 -0.0113384 -0.00472431
-0.00736993 0.00566918 -0.0117163
-0.00642507 0.0160627 -0.0120942
-0.00585815 -0.0291018 -0.00188973
-0.0296687 0.0105825 0.0376055
-0.0096376 0.00736993 0.0160627
0.00736993 -0.0168186 0.00170075
0.0103935 0.0190862 0.000944863
-0.0183303 0.0143619 0.0190862
-0.0162516 0.00831479 0.0241885
0.0387394 0.0351489 -0.0185193
0.0336371 0.0447865 -0.0175745
-0.00113384 0.0370386 0.00283459
-0.0279679 0.0222988 0.0217318
-0.0107714 0.0170075 0.0306136
0.0300466 -0.0376055 -0.0102045
-0.0153068 0.0198421 0.0262672
0.00888171 0.00661404 -0.0315584
-0.00264562 0.0221098 0.0262672
-0.00812582 -0.0105825 -0.0111494
-0.00982658 -0.0115273 0.00245664
0.041196 -0.013795 -0.0294797
0.0421409 -0.0128501 -0.0427078
0.00340151 -0.000377945 -0.000944863
0.00170075 -0.0219208 0.00151178
-0.0102045 0.0096376 -0.0158737
-0.00888171 0.02759 -0.0166296
0.00434637 -0.041574 -0.034393
-0.0145509 -0.0580146 0.020976
-0.00793685 -0.00188973 0.00812582
-0.047999 0.0156847 0.0566918
-0.0243775 0.0464873 0.0308025
-0.0391173 -0.0162516 0.048377
0.0646286 0.0410071 -0.034393
0.0572587 0.0582036 -0.0330702
-0.00661404 0.0438416 0.00396842
-0.0534792 0.0179524 0.0366607
-0.0170075 -0.0236216 0.0219208
Vibration 11
0.0156847 -0.0096376 0.041196
0.0149288 0.00321253 0.062172
0.00340151 0.0105825 0.034393
-0.00718096 0.00566918 -0.00170075
-0.0119053 0.00321253 -0.0164406
0.00340151 -0.0107714 0.0100155
-0.0296687 0.0179524 -0.0572587
0.00226767 -0.0266451 -0.0062361
0.000944863 -0.0427078 -0.020409
0.0238105 -0.0119053 0.0291018
0.0158737 0.0109604 0.0317474
0.00661404 0.0196532 0.0147399
0.00585815 0.00264562 -0.00585815
0.0213539 -0.0247554 -0.0158737
0.0298577 -0.0313695 0.00226767
-0.0117163 0.0171965 -0.0177634
0.00359048 0.0145509 0.0234326
0.0177634 0.0041574 0.0171965
0.0168186 -0.00869274 0.00264562
0.000566918 -0.0103935 -0.00585815
-0.0141729 0.00472431 -0.00264562
-0.0124722 0.0168186 0.0120942
-0.00113384 -0.0308025 -0.0192752
-0.0468652 0.0120942 -0.0188973
-0.00585815 0.00888171 -0.00699199
-0.00283459 0.0141729 0
-0.00566918 0.0041574 -0.00075589
-0.00132281 0.00245664 -0.00831479
-0.00831479 0.00510226 -0.0096376
-0.00283459 0.00132281 0.00566918
0.00585815 -0.00340151 0.00321253
0.0111494 -0.00510226 -0.00491329
0.00718096 -0.00245664 -0.0107714
-0.0117163 -0.00151178 -0.0151178
-0.00812582 0.020598 0.00661404
-0.00170075 0.013606 -0.0181414
0.0249444 0.00774788 0.0916517
-0.0183303 -0.00472431 -0.0122832
0.0162516 0.0236216 0.0474321
-0.00170075 0.0394953 0.0185193
0.0257003 -0.0406291 -0.0362827
0.0396842 -0.0523454 -0.00321253
0.0309915 0.00396842 0.0247554
0.0285349 -0.0183303 -0.00113384
-0.0270231 0.00585815 -0.0107714
-0.0245664 0.0262672 0.0160627
0.0103935 -0.0372276 -0.0239995
-0.0181414 -0.0362827 -0.0222988
0.00321253 -0.0362827 -0.0230547
-0.0704868 0.0340151 -0.0187083
-0.0376055 0.020976 -0.0181414
-0.0585815 -0.0202201 -0.020787
-0.00642507 0.00283459 0.0120942
0.00869274 -0.00566918 0.00774788
0.0187083 -0.00869274 -0.00680301
0.0115273 -0.00396842 -0.0170075
-0.034204 0.0175745 -0.0744552
Vibration 12
-0.0185193 0.0109604 0.00151178
-0.0179524 0.0020787 0.00491329
-0.0096376 -0.00377945 0.00718096
-0.00151178 0.000566918 0.0041574
-0.00113384 0.00982658 0.00396842
-0.0107714 0.0143619 0.00472431
0.00585815 0.0128501 0.00321253
-0.0096376 0.0306136 0.0113384
-0.00812582 0.0506447 0.020409
-0.0115273 0.00831479 -0.00472431
-0.0230547 0.00548021 0.0062361
0.00359048 -0.0075589 -0.00604712
0.0376055 -0.0151178 -0.0257003
0.0495108 -0.0124722 -0.0360938
0.0251334 -0.00132281 -0.0264562
0.0695419 -0.0319364 -0.0391173
-0.0103935 -0.0120942 0.0107714
-0.0096376 -0.0105825 0.00944863
-0.00925966 -0.00283459 0.00359048
-0.0102045 0.00245664 -0.000377945
-0.0119053 -0.00869274 0.00680301
-0.0122832 -0.0158737 0.0122832
-0.00925966 0.0222988 -0.0130391
-0.0521564 0.0298577 0.0636838
0.00850377 -0.0075589 -0.00510226
0.00340151 0.00075589 0.00151178
-0.00340151 -0.00850377 -0.00075589
0.0103935 -0.00377945 -0.00510226
0.0075589 -0.00529123 -0.00283459
-0.0160627 -0.0134171 0.00377945
-0.0109604 -0.0119053 0.0020787
0.00812582 -0.00491329 -0.00434637
0.0188973 -0.00113384 -0.00793685
0.00566918 -0.0160627 -0.00245664
-0.00321253 0.00718096 0.00642507
0.0124722 -0.0153068 -0.0126612
-0.0236216 -0.00132281 0.00491329
0.000377945 -0.0171965 -0.00170075
-0.0529123 0.0124722 0.0239995
-0.00302356 -0.0109604 0.000377945
0.0795575 -0.0202201 -0.0542351
0.0359048 0.000188973 -0.0357158
-0.00925966 -0.013606 0.0115273
-0.00793685 0.000566918 0.00075589
-0.0126612 -0.0100155 0.00699199
-0.013606 -0.0221098 0.0166296
-0.0241885 0.0319364 -0.00132281
-0.00529123 0.0389284 -0.0266451
0.0020787 0.0130391 -0.020976
-0.0568808 0.0281569 0.0733214
-0.113195 0.12869 0.0213539
-0.0702978 -0.0249444 0.167619
-0.0292908 -0.0183303 0.00831479
-0.0215429 -0.0158737 0.00566918
0.0141729 -0.00283459 -0.0062361
0.0332592 0.00340151 -0.0124722
0.00699199 0.0188973 0.00377945
Vibration 13
-0.00699199 -0.00396842 -0.0230547
-0.00793685 -0.00453534 -0.020787
-0.00472431 -0.00604712 0.00245664
0.00245664 -0.00321253 0.0168186
-0.00888171 -0.000944863 -0.0217318
-0.00548021 -0.00396842 -0.0164406
-0.0247554 0.0111494 -0.0546131
-0.00661404 -0.0154958 0.000377945
-0.00774788 -0.0313695 0.0185193
-0.00850377 -0.00453534 -0.0200311
-0.00793685 -0.0132281 -0.0194642
-0.00925966 -0.0147399 -0.00907068
-0.0111494 -0.0075589 0.000188973
-0.0111494 0.00113384 -0.00075589
-0.0103935 0.0020787 -0.0109604
-0.013984 -0.00944863 0.0126612
-0.00472431 -0.0143619 0.0096376
-0.00264562 -0.0103935 0.00604712
-0.0020787 -0.00321253 -0.00113384
-0.0041574 -0.000566918 -0.00396842
-0.00680301 -0.0149288 0.00585815
-0.00699199 -0.0213539 0.0124722
-0.00302356 0.0211649 -0.0194642
0.013795 -0.0132281 0.00302356
0.0185193 -0.0141729 0.00850377
-0.00188973 0.0171965 0.0234326
-0.0190862 -0.00472431 0.0145509
-0.00188973 0.0075589 0.020409
0.00982658 -0.00188973 0.0268341
-0.00510226 0.00793685 -0.00321253
0.0385504 0.0389284 -0.0187083
0.0616051 0.0538572 -0.0151178
0.0381725 0.0377945 0.00680301
0.0226767 -0.00434637 0.054991
-0.0472432 0.0542351 0.0355268
0.0360938 -0.0400622 -0.0253223
-0.00925966 -0.00510226 -0.0321253
0.034771 0.0105825 0.0423299
-0.00680301 -0.0190862 -0.0268341
-0.00888171 -0.020787 -0.00831479
-0.0122832 0.00718096 0.00718096
-0.0111494 0.00850377 -0.0113384
-0.00132281 -0.0102045 0.00661404
0 0.00264562 -0.00566918
-0.00869274 -0.0190862 0.00718096
-0.00907068 -0.0289128 0.0179524
-0.0194642 0.0308025 -0.0109604
0.000188973 0.0364717 -0.0321253
0.0107714 0.0145509 -0.02759
0.0154958 -0.0187083 0.00925966
0.0270231 -0.0236216 0.0096376
0.0181414 -0.000377945 -0.0156847
-0.0200311 -0.00321253 -0.00793685
0.0578256 0.0521564 -0.0349599
0.100911 0.0791795 -0.0289128
0.0585815 0.0508336 0.0113384
-0.0311805 0.0143619 -0.0806913
Vibration 14
0.000566918 0.00321253 -0.00434637
0.000377945 0.00642507 -0.00510226
-0.0041574 0.00869274 0
-0.00812582 0.00604712 0.0113384
-0.00642507 -0.00075589 0.0183303
-0.00321253 -0.000377945 0.00548021
-0.00604712 -0.00869274 0.0330702
-0.00377945 -0.00793685 -0.00151178
-0.00472431 -0.0188973 -0.0102045
0.00453534 0.0020787 -0.00982658
0.0075589 -0.000944863 -0.0119053
0.00472431 -0.000377945 -0.00661404
-0.000377945 0.0041574 0.000377945
0.0020787 0.00529123 -0.00188973
0.0041574 0.00453534 -0.00661404
-0.0113384 0.0075589 0.0128501
-0.00434637 0.0151178 -0.00491329
-0.00340151 0.0192752 -0.00774788
-0.00396842 0.0141729 -0.00585815
-0.00566918 0.00302356 0
-0.00604712 0.00699199 -0.00188973
-0.00548021 0.0132281 -0.00453534
-0.00680301 -0.0173855 0.0102045
0.0103935 0.0020787 0.0020787
-0.0251334 -0.00699199 -0.0109604
0.013984 -0.0145509 0.0385504
-0.048566 -0.00510226 0.00585815
0.00642507 0.0109604 -0.0164406
-0.013984 0.00321253 -0.00661404
-0.0823921 -0.0185193 0.0179524
-0.0272121 -0.00170075 0
0.062361 0.0289128 -0.0332592
0.075967 0.0340151 -0.0391173
-0.0260782 -0.000566918 -0.0325033
0.107903 -0.0602823 0.0867384
-0.0134171 -0.0130391 -0.0330702
0.00302356 0.00812582 -0.0103935
-0.0402512 -0.00774788 -0.0262672
0.0113384 -0.00377945 -0.0164406
0.00566918 -0.00283459 -0.00699199
0.00113384 0.00736993 0.000944863
0.00453534 0.00661404 -0.00699199
-0.00302356 0.0230547 -0.00982658
-0.00302356 0.0160627 -0.00736993
-0.00680301 0.00340151 -0.000188973
-0.00604712 0.0149288 -0.00491329
0.00869274 -0.0255113 0.00680301
-0.0119053 -0.02759 0.0171965
-0.0179524 -0.0171965 0.0151178
0.000377945 0.0041574 0.013606
0.034204 -0.00529123 0.0115273
0.0105825 0.00396842 -0.0249444
-0.142674 -0.0410071 0.0391173
-0.0491329 -0.0115273 0.0102045
0.121131 0.0468652 -0.0523454
0.140596 0.05518 -0.0585815
-0.00472431 -0.0168186 0.0440306
Vibration 15
0.00113384 -0.0158737 0.0234326
0.00188973 -0.0096376 -0.00377945
-0.00132281 -0.00699199 -0.0266451
-0.000944863 -0.0062361 -0.0171965
0.00774788 -0.0126612 0.0102045
0.00453534 -0.0124722 0.0160627
0.0156847 -0.0185193 0.0272121
0.00566918 0.00245664 -0.00226767
0.00718096 0.0228657 -0.0287238
-0.00604712 -0.0154958 0.0366607
-0.0126612 -0.00359048 0.0398732
-0.0111494 -0.00113384 0.0243775
-0.00434637 -0.0153068 0.00548021
-0.0130391 -0.0228657 0.013606
-0.0126612 -0.0236216 0.0279679
0.0179524 -0.0188973 -0.0330702
-0.00132281 0.0020787 -0.0362827
-0.0145509 0.0122832 -0.0306136
-0.0145509 0.0160627 -0.0119053
0 0.00812582 0.00113384
0.0151178 0.0128501 -0.0124722
0.0134171 0.00944863 -0.0311805
-0.000188973 -0.00850377 0.0374166
-0.0351489 -0.0166296 -0.0217318
0.00510226 0.00321253 -0.00736993
0.0075589 0.0166296 0.0103935
-0.0115273 -0.000377945 0
-0.0171965 -0.00113384 0.00340151
-0.00434637 0.000377945 -0.00151178
0.0075589 0.00925966 -0.0105825
0.0222988 0.0187083 -0.0158737
0.0120942 0.0162516 -0.0102045