[Molden Format]
[FREQ]
-1734.3
15.3
24.0
27.8
28.7
31.6
33.7
44.0
52.0
57.1
65.1
79.0
91.9
98.0
116.5
125.2
129.7
148.4
151.4
162.4
174.3
188.5
194.5
212.2
230.8
241.9
264.8
284.1
289.1
303.0
313.2
338.7
345.2
349.7
356.5
366.3
379.9
392.4
424.2
435.0
450.8
463.9
482.0
495.2
502.4
524.6
533.2
540.1
552.9
576.3
578.9
588.7
614.9
616.3
627.8
645.5
656.7
674.1
692.7
710.0
716.9
728.9
754.1
762.5
789.2
806.8
830.1
842.8
863.5
879.7
882.9
888.0
894.6
901.3
940.6
942.5
953.0
977.5
1004.2
1007.2
1008.8
1014.8
1015.6
1023.1
1033.5
1042.8
1045.7
1066.1
1071.2
1080.1
1112.6
1118.9
1128.1
1155.6
1179.4
1182.0
1182.7
1185.3
1186.1
1206.7
1219.9
1236.2
1255.6
1263.1
1273.9
1274.5
1285.9
1286.8
1288.2
1294.1
1300.2
1324.0
1327.2
1327.6
1334.1
1345.1
1347.2
1349.1
1356.4
1365.1
1382.7
1389.2
1392.0
1399.1
1433.4
1458.9
1466.5
1521.7
1526.4
1526.5
1575.9
1579.9
1591.5
1693.1
1697.9
1701.1
1708.1
1709.7
1712.0
1740.4
1773.5
1811.0
1889.6
2148.4
2435.5
2652.3
2655.4
2667.8
2675.5
2726.2
2732.8
2745.6
2746.4
2746.5
2750.8
2751.6
2752.0
2753.3
2758.7
2763.9
2765.6
2768.3
2769.0
2773.0
2780.1
       
[FR-COORD]
C -1.02688 -2.68662 0.532525
C 1.71927 -2.68662 0.532525
C 3.01581 -0.476022 0.532525
N 1.63329 1.88746 0.613405
C -0.63098 1.52199 2.06453
C -2.24707 -0.523454 1.24287
N -1.43997 3.74317 3.5816
C -4.90856 -0.27231 1.20753
N -7.08666 -0.0289128 1.18202
C -2.32172 -4.97678 -0.299144
C -1.71984 -6.02142 -2.66073
C -2.93645 -8.18138 -3.49902
C -4.76778 -9.30501 -1.93754
C -5.38099 -8.3044 0.421409
C -4.14152 -6.12441 1.22492
O -5.80297 -11.4105 -2.98274
C 5.77066 -0.255869 0.431235
C 7.02071 1.59795 1.84003
C 9.64176 1.77521 1.75385
C 11.0362 0.111305 0.250578
C 9.78557 -1.73061 -1.16955
C 7.16509 -1.91297 -1.08432
C 13.8428 0.328623 0.127368
C -7.74882 -12.6392 -1.60022
C -3.86884 3.9586 4.81918
C -0.643641 6.22986 2.56625
C -1.36948 6.67621 -0.0903289
C -0.383425 5.22547 -2.05281
C 1.58302 3.23578 -1.69867
C -3.13335 8.57274 -0.578445
C -3.94896 8.98073 -3.04888
C -2.98539 7.51941 -5.01741
C -1.18826 5.65803 -4.52703
O 3.18853 2.87333 -3.28415
O 0.431424 7.63166 3.96975
O -4.5926 1.71814 5.56827
H 2.67245 -4.507 0.544808
H 0.152879 2.30244 4.75436
H -0.295742 -5.10793 -3.84162
H -2.51088 -9.01305 -5.32733
H -6.79338 -9.17292 1.62309
H -4.59751 -5.31183 3.06268
H 5.93563 2.91282 2.99559
H 10.6038 3.22331 2.84838
H 10.8614 -3.01487 -2.35876
H 6.19471 -3.32667 -2.22477
H 14.6567 1.08017 1.88236
H 14.4095 1.6142 -1.40879
H 14.7627 -1.49629 -0.233948
H -8.2632 -14.2039 -2.86369
H -9.36416 -11.3784 -1.31676
H -7.0294 -13.3679 0.196154
H -3.87451 9.72434 0.961682
H -5.34263 10.4451 -3.43855
H -3.63073 7.83575 -6.94852
H -0.390606 4.53572 -6.07112
H -6.2892 1.56356 6.31017

[FR-NORM-COORD]
Vibration 1
0.00264562 -0.00396842 -0.000944863
-0.00170075 -0.000377945 -0.0020787
-0.00226767 -0.000188973 0.00377945
-0.00434637 0.00321253 0.0128501
-0.0470542 -0.0143619 -0.119431
0.00736993 0.0096376 0.0020787
0.089951 -0.0839038 0.0419519
-0.00151178 -0.00302356 0.00151178
-0.00132281 0.00113384 0.00075589
0 0.000566918 0.000377945
-0.000377945 0.000188973 0.000188973
-0.000566918 -0.00075589 0
0.00075589 0.00151178 0.00075589
-0.000566918 -0.000566918 -0.000566918
0.000566918 0.000188973 -0.000188973
-0.00075589 -0.00113384 -0.000377945
-0.000188973 0 0.00113384
0.000188973 -0.000377945 0
0.000566918 0.000188973 -0.000188973
-0.000377945 -0.000188973 0
0.000377945 0.000377945 0.000188973
-0.000188973 0.000377945 0.000188973
0.000566918 0.000188973 0
0.000188973 0 -0.000377945
-0.0332592 -0.013795 0.00434637
0.0103935 0.0130391 -0.0111494
-0.00396842 -0.00396842 0.00434637
0.000377945 0.00132281 -0.000188973
-0.000566918 -0.0113384 0.0041574
-0.00113384 0.000944863 0.000188973
0.000188973 0.000566918 0.000944863
0 -0.000188973 0.000188973
-0.000188973 0.000566918 0.000566918
0.000377945 0.00245664 -0.00113384
-0.000377945 -0.00264562 0.00245664
0.00226767 0.0113384 0.00132281
-0.00170075 0.000944863 -0.00245664
-0.341662 1.25742 0.51325
-0.000188973 0.00151178 0.00283459
-0.000377945 -0.000188973 0.00132281
0.00113384 0.000188973 -0.00113384
0.00340151 -0.000944863 -0.00264562
0.000944863 -0.00529123 -0.00151178
0 -0.00132281 -0.00075589
-0.000377945 0.000566918 0.000566918
-0.00188973 0.00132281 0.00132281
-0.00075589 -0.000566918 -0.000188973
-0.000377945 -0.000377945 0.000377945
-0.000944863 0 0.000188973
-0.000377945 0.000188973 0.000944863
0.000944863 0.000188973 0.000377945
0.000188973 0.000944863 -0.000188973
-0.00226767 0.00264562 -0.00359048
0.000377945 0 0.000188973
-0.00113384 0.000188973 -0.00113384
0.00264562 -0.00302356 0.00113384
-0.0238105 -0.0260782 -0.00283459
Vibration 2
-0.00907068 -0.00396842 -0.0103935
-0.00925966 -0.00170075 -0.00869274
-0.0107714 -0.00075589 -0.00812582
-0.0109604 -0.00132281 -0.00642507
-0.013795 -0.00340151 -0.0120942
-0.0117163 -0.00359048 -0.0160627
-0.0145509 -0.00736993 -0.00642507
-0.0115273 -0.00491329 -0.0241885
-0.0117163 -0.00642507 -0.0321253
-0.00548021 -0.00907068 -0.00245664
-0.00321253 -0.0185193 0.00226767
0.00434637 -0.027401 0.013984
0.0096376 -0.0264562 0.020787
0.00566918 -0.0154958 0.0151178
-0.00188973 -0.00680301 0.00340151
0.0190862 -0.0374166 0.0334482
-0.0107714 0 -0.00831479
-0.0102045 -0.0100155 0.00396842
-0.0102045 -0.00907068 0.00340151
-0.0113384 0.00188973 -0.00982658
-0.0120942 0.0119053 -0.0221098
-0.0120942 0.0109604 -0.0213539
-0.0113384 0.00283459 -0.0107714
0.0258892 -0.0389284 0.041574
-0.0215429 -0.00151178 -0.0215429
0.00529123 -0.0062361 0.0115273
0.0173855 0.0171965 0.0122832
0.0117163 0.0224877 0.00548021
-0.0041574 0.00548021 -0.00264562
0.0357158 0.0360938 0.0198421
0.047999 0.0612271 0.0198421
0.0421409 0.0667073 0.0128501
0.0238105 0.0472432 0.00585815
-0.00812582 -0.00132281 -0.00529123
0.0107714 -0.0232436 0.0243775
-0.0332592 -0.000566918 -0.0300466
-0.00736993 -0.00075589 -0.00869274
-0.0255113 -0.0173855 -0.00491329
-0.00699199 -0.0194642 -0.00302356
0.00661404 -0.0351489 0.0181414
0.00869274 -0.013984 0.0198421
-0.00472431 0.00132281 -0.000944863
-0.00944863 -0.0185193 0.0143619
-0.00944863 -0.0170075 0.0132281
-0.0128501 0.020598 -0.0323143
-0.0130391 0.0190862 -0.0306136
-0.0103935 -0.000188973 -0.0100155
-0.0124722 0.00566918 -0.00888171
-0.0113384 0.00359048 -0.0145509
0.0338261 -0.0495108 0.0514005
0.0192752 -0.0455424 0.0338261
0.0298577 -0.0239995 0.0459203
0.0404401 0.0315584 0.0255113
0.0629279 0.0767229 0.0253223
0.0519675 0.0865495 0.0126612
0.0194642 0.0514005 0.000566918
-0.0391173 0.00283459 -0.0423299
Vibration 3
0.00359048 0.00453534 -0.0119053
0.00340151 0.0041574 -0.0145509
0.00359048 0.00377945 -0.00604712
0.00718096 0.00491329 0.00132281
0.00340151 0.00321253 -0.00529123
0.00453534 0.00453534 -0.0100155
-0.00113384 -0.000377945 -0.00264562
0.00453534 0.00529123 -0.0107714
0.00453534 0.00604712 -0.0119053
0.00075589 0.0041574 -0.0062361
-0.0102045 0.00188973 -0.00774788
-0.0143619 0.000944863 0
-0.00718096 0.00264562 0.0096376
0.00396842 0.00491329 0.0115273
0.00774788 0.00566918 0.00340151
-0.0124722 0.00170075 0.0168186
0.00434637 0.000566918 -0.00396842
0.0100155 -0.0531013 0.0608492
0.0107714 -0.0589595 0.0659514
0.00396842 -0.00907068 0.00453534
-0.00283459 0.0462983 -0.0616051
-0.00321253 0.0504557 -0.0650066
0.00472431 -0.0153068 0.00888171
-0.00472431 0.00245664 0.0281569
0.000377945 -0.0113384 0.00283459
-0.0149288 0.00434637 -0.00151178
-0.0103935 -0.00245664 -0.00377945
0.00585815 0.00340151 0.000188973
0.0171965 0.0160627 0.0075589
-0.0234326 -0.0162516 -0.0103935
-0.0196532 -0.0243775 -0.0128501
-0.00245664 -0.0183303 -0.00925966
0.0103935 -0.0041574 -0.00264562
0.0317474 0.0332592 0.0185193
-0.0298577 0.0130391 0.00113384
0.0100155 -0.0153068 0.000944863
0.0041574 0.00434637 -0.0230547
0.00359048 0.0020787 -0.00491329
-0.0154958 0.000377945 -0.0153068
-0.0226767 -0.000944863 -0.000944863
0.00944863 0.0062361 0.0190862
0.0164406 0.0075589 0.00472431
0.0143619 -0.0907068 0.107336
0.0160627 -0.101856 0.117919
-0.00774788 0.0867384 -0.109604
-0.00982658 0.0944863 -0.114139
0.00661404 -0.0317474 0.0149288
0.00944863 -0.00491329 0.0192752
-0.00132281 -0.0156847 -0.00510226
-0.0109604 0.000944863 0.0325033
-0.00359048 0.0020787 0.0355268
0.00491329 0.00434637 0.0251334
-0.0364717 -0.020598 -0.0132281
-0.0300466 -0.0357158 -0.0179524
0.00075589 -0.0245664 -0.0113384
0.0236216 0.00113384 0.000377945
0.0126612 -0.0219208 0.00529123
Vibration 4
-0.00604712 0.0103935 -0.0171965
-0.0062361 0.00736993 -0.0236216
-0.00340151 0.00585815 -0.0175745
-0.00132281 0.00699199 -0.0126612
0.00113384 0.00661404 -0.00869274
-0.00245664 0.00888171 -0.00699199
0.00736993 0.00510226 -0.00321253
-0.00283459 0.00718096 0.00774788
-0.00321253 0.00491329 0.020787
-0.00812582 0.0109604 -0.0162516
-0.0370386 0.0321253 -0.0328812
-0.0319364 0.0270231 -0.0272121
0.00359048 0.000566918 -0.00453534
0.0300466 -0.0177634 0.0102045
0.0234326 -0.0115273 0.00396842
0.00869274 -0.00434637 0.000377945
-0.00283459 -0.000188973 -0.00888171
-0.00359048 0.00170075 -0.0107714
-0.00188973 -0.0117163 0.00699199
0.000566918 -0.0272121 0.0266451
0.00132281 -0.0266451 0.0251334
-0.000188973 -0.0130391 0.00718096
0.00302356 -0.0459203 0.0491329
0.05518 -0.0419519 0.0323143
0.0126612 0.00321253 0.00736993
0.00283459 0.00604712 -0.00434637
-0.00434637 0.00642507 -0.00226767
-0.00831479 0.00812582 -0.00548021
-0.0062361 0.00888171 -0.0115273
-0.00718096 0.00510226 0.00340151
-0.013984 0.00585815 0.00585815
-0.0179524 0.00774788 0.00245664
-0.0151178 0.00888171 -0.00321253
-0.00907068 0.0111494 -0.0147399
0.00529123 0.00642507 -0.00661404
0.0175745 0.00245664 0.00982658
-0.00888171 0.00604712 -0.0308025
0.0113384 0.00245664 -0.0105825
-0.0629279 0.0515895 -0.0489439
-0.0536682 0.0421409 -0.0391173
0.055369 -0.0366607 0.0262672
0.0440306 -0.0255113 0.0153068
-0.00510226 0.0130391 -0.0251334
-0.00264562 -0.0107714 0.0062361
0.00340151 -0.0376055 0.0389284
0.00113384 -0.0134171 0.00661404
-0.00812582 -0.0236216 0.0447865
0.0253223 -0.0736993 0.034204
-0.00529123 -0.0576366 0.0861715
0.055369 -0.0438416 0.034582
0.0408181 -0.068786 0.0699199
0.101478 -0.0394953 0.0149288
-0.0041574 0.00377945 0.00604712
-0.0164406 0.00491329 0.0102045
-0.0230547 0.00850377 0.00434637
-0.0183303 0.0103935 -0.00585815
0.020787 0.000377945 0.0168186
Vibration 5
0.00850377 -0.0120942 -0.00075589
0.00850377 -0.00869274 -0.00736993
0.0041574 -0.00642507 -0.0062361
-0.00113384 -0.00869274 -0.0109604
0.0041574 -0.0100155 -0.00359048
0.0062361 -0.0147399 0.0041574
0.0062361 -0.0062361 -0.00736993
0.00510226 -0.0241885 0.0166296
0.00396842 -0.0332592 0.0268341
0.00529123 -0.0111494 0.00151178
-0.0234326 0.00604712 -0.0130391
-0.0366607 0.0141729 -0.0153068
-0.0200311 0.00491329 -0.00245664
0.0124722 -0.0149288 0.0145509
0.0249444 -0.0226767 0.0164406
-0.0394953 0.0173855 -0.00831479
0.00359048 0.00510226 0.00340151
-0.0107714 -0.00151178 0.0251334
-0.0117163 0.013606 0.034771
0.00170075 0.0359048 0.0224877
0.0160627 0.0423299 0.00170075
0.0166296 0.0264562 -0.0075589
0.00075589 0.0540462 0.0323143
-0.0308025 0.0151178 0.00188973
0.00529123 0.00302356 -0.0113384
0.0179524 -0.0107714 -0.0100155
0.0119053 -0.00510226 -0.00736993
-0.00340151 -0.0103935 -0.0113384
-0.013984 -0.0219208 -0.0185193
0.0234326 0.00736993 -0.000944863
0.0192752 0.0149288 0.00170075
0.00321253 0.00944863 -0.0020787
-0.00831479 -0.00340151 -0.00850377
-0.0304246 -0.0408181 -0.0309915
0.0323143 -0.0185193 -0.0134171
0.00170075 0.00736993 -0.00245664
0.0113384 -0.00718096 -0.0103935
0.00377945 -0.00718096 -0.00510226
-0.0362827 0.0134171 -0.0228657
-0.0597153 0.0279679 -0.0270231
0.02759 -0.0238105 0.0257003
0.0493218 -0.0370386 0.0289128
-0.0215429 -0.0185193 0.034204
-0.0228657 0.00812582 0.0519675
0.0266451 0.0595264 -0.00736993
0.027401 0.0317474 -0.0230547
-0.00793685 0.034393 0.0447865
-0.00302356 0.0788016 0.0515895
0.0124722 0.0646286 0.00925966
-0.0548021 0.0308025 -0.00774788
-0.0200311 0.0217318 0.0334482
-0.013795 -0.00699199 -0.013795
0.0359048 0.0115273 0.0020787
0.0287238 0.0253223 0.00680301
-0.000188973 0.0153068 0
-0.020787 -0.00812582 -0.0115273
-0.000377945 0.0113384 -0.00642507
Vibration 6
-0.0109604 0.00434637 0.020787
-0.0103935 0.00075589 0.020787
-0.00907068 -0.000566918 0.0120942
-0.0075589 0.000566918 0.00472431
-0.00377945 0.00680301 0.0128501
-0.00774788 0.00566918 0.0219208
0.00302356 0.0168186 0.00302356
-0.00774788 0.00680301 0.0302356
-0.00774788 0.00736993 0.0385504
-0.00661404 0.00604712 0.0102045
0.0181414 0.00831479 0.0149288
0.0334482 0.00472431 0.00283459
0.0228657 -0.00170075 -0.013984
-0.00510226 -0.00188973 -0.0213539
-0.0198421 0.00226767 -0.00888171
0.0436527 -0.0075589 -0.0228657
-0.00907068 -0.00359048 0.00642507
-0.00132281 -0.0270231 0.0298577
-0.00113384 -0.0321253 0.0247554
-0.0096376 -0.0126612 -0.00472431
-0.0181414 0.0115273 -0.0289128
-0.0181414 0.0156847 -0.0228657
-0.00944863 -0.0185193 -0.0109604
0.0408181 -0.020598 -0.0385504
0.00340151 0.034204 0.000188973
0.0160627 0.00850377 -0.00850377
0.00642507 0.00434637 -0.00661404
-0.00982658 -0.00869274 -0.00529123
-0.0177634 -0.0162516 -0.00548021
0.0151178 0.0122832 -0.0062361
0.00642507 0.00699199 -0.0041574
-0.0109604 -0.00642507 -0.00264562
-0.0190862 -0.0145509 -0.00340151
-0.0315584 -0.0364717 -0.0147399
0.0338261 0.00472431 -0.0183303
-0.00604712 0.0417629 0.0128501
-0.0119053 0 0.0266451
-0.00132281 0.0171965 0.00869274
0.0264562 0.0130391 0.0283459
0.0534792 0.0062361 0.00699199
-0.0153068 -0.00548021 -0.0357158
-0.041385 0.00113384 -0.013795
0.00453534 -0.0417629 0.0519675
0.00548021 -0.0512116 0.0438416
-0.0245664 0.027401 -0.0519675
-0.0255113 0.0349599 -0.0404401
-0.00340151 -0.0179524 -0.013984
-0.0100155 -0.0219208 -0.013984
-0.0149288 -0.0213539 -0.0103935
0.0642507 -0.0262672 -0.0408181
0.0287238 -0.0325033 -0.0548021
0.0302356 -0.0124722 -0.0308025
0.0283459 0.0224877 -0.00736993
0.0134171 0.013606 -0.00396842
-0.0181414 -0.0107714 -0.000944863
-0.0323143 -0.0253223 -0.00245664
-0.00774788 0.0521564 0.0113384
Vibration 7
0.00340151 0.00151178 -0.0188973
0.00377945 0.00453534 -0.0268341
0.00245664 0.00529123 -0.0249444
0.00075589 0.00434637 -0.020976
0.00661404 -0.000566918 -0.0132281
0.00472431 0.000566918 -0.0120942
0.0132281 -0.00510226 -0.00359048
0.00491329 0.00302356 -0.00396842
0.00529123 0.00680301 0.00245664
0.00302356 -0.00075589 -0.0105825
0.0309915 -0.034771 0.0113384
0.0317474 -0.0391173 0.0215429
0.00264562 -0.00907068 0.00888171
-0.0264562 0.0247554 -0.0130391
-0.0255113 0.02759 -0.0226767
0.00642507 -0.0171965 0.0213539
0.00264562 0.00642507 -0.0147399
-0.00434637 0.00283459 -0.00377945
-0.00321253 -0.00283459 0.0171965
0.00491329 -0.00453534 0.0266451
0.0117163 0.0020787 0.0120942
0.0105825 0.0075589 -0.00869274
0.00680301 -0.0145509 0.0532903
-0.02759 0.0175745 0.00453534
0.0188973 -0.0075589 0.00718096
0.0113384 -0.00359048 -0.00170075
-0.00340151 0.0020787 0.00321253
-0.0143619 0.00604712 -0.00529123
-0.0119053 0.00548021 -0.0198421
-0.00736993 0.0020787 0.0175745
-0.0224877 0.00642507 0.0232436
-0.0334482 0.0105825 0.0147399
-0.0294797 0.0105825 0.000377945
-0.0213539 0.00661404 -0.0294797
0.0221098 -0.00888171 -0.00491329
0.0202201 -0.00982658 0.0020787
0.00548021 0.00548021 -0.0300466
0.0177634 -0.00907068 -0.0141729
0.0523454 -0.0574477 0.0194642
0.0538572 -0.0650066 0.0383614
-0.0489439 0.048188 -0.0224877
-0.0472432 0.0523454 -0.0389284
-0.0103935 0.00359048 -0.0103935
-0.00869274 -0.00661404 0.0270231
0.0181414 0.00226767 0.0177634
0.0162516 0.0120942 -0.0190862
-0.00774788 -0.00774788 0.0572587
0.0266451 -0.0249444 0.0519675
0.00396842 -0.0198421 0.0723765
-0.0183303 0.00434637 0.0170075
-0.0222988 0.034771 -0.0410071
-0.0648176 0.0362827 0.0270231
0.00113384 -0.00132281 0.0241885
-0.0257003 0.0062361 0.034393
-0.0451645 0.013984 0.0192752
-0.0383614 0.013795 -0.00661404
0.0236216 -0.0107714 0.0096376
Vibration 8
0.0041574 0.00453534 0.000188973
0.0041574 0.000377945 0.0126612
0.0062361 -0.000566918 0.0124722
0.00774788 0 0.0117163
0.00453534 -0.000377945 0.00793685
0.00321253 0.0075589 -0.0107714
0.00340151 0.0020787 0.00642507
0.00529123 0.020598 -0.0536682
0.00718096 0.0334482 -0.0976988
0.00245664 0.0062361 -0.00188973
-0.0105825 0.0134171 -0.00793685
-0.013795 0.0143619 -0.00585815
-0.00226767 0.00812582 0.00321253
0.0103935 0.00188973 0.00907068
0.0122832 0.00170075 0.00642507
-0.00604712 0.00907068 0.00491329
0.0062361 -0.00170075 0.0103935
0.00831479 -0.00264562 0.00982658
0.00793685 -0.000566918 0.00340151
0.00548021 0.00264562 -0.00245664
0.00340151 0.00226767 -0.000188973
0.00377945 0.000188973 0.00642507
0.00472431 0.00680301 -0.0113384
0.0130391 -0.00396842 0.0202201
-0.0122832 0.0289128 -0.0328812
0.0436527 -0.00718096 0.00888171
0.0111494 -0.00264562 0.0185193
-0.0075589 -0.0107714 0.0147399
0.00472431 0 0.0105825
-0.0062361 -0.0162516 0.0323143
-0.0451645 -0.0408181 0.0408181
-0.0659514 -0.0500777 0.0377945
-0.0455424 -0.034582 0.0236216
0.00510226 0.00774788 0.0102045
0.0988327 -0.0370386 -0.00529123
-0.0665184 0.034204 -0.0706758
0.0020787 -0.000566918 0.0166296
-0.0198421 -0.0113384 0.0173855
-0.0183303 0.0177634 -0.013984
-0.0243775 0.0192752 -0.0105825
0.0185193 -0.00264562 0.0154958
0.0219208 -0.00188973 0.0103935
0.0100155 -0.00472431 0.013984
0.0096376 -0.000944863 0.00264562
0.00151178 0.0041574 -0.00396842
0.0020787 0 0.00793685
0.0096376 0.00226767 -0.0117163
-0.00245664 0.0128501 -0.00907068
0.0062361 0.00944863 -0.020787
0.00888171 -0.00340151 0.0213539
0.0096376 -0.0126612 0.0385504
0.0336371 -0.00491329 0.0117163
0.00869274 -0.0103935 0.034771
-0.0610381 -0.0531013 0.0504557
-0.0988327 -0.0701088 0.0453534
-0.0616051 -0.0408181 0.0202201
-0.0822031 0.0580146 -0.100722
Vibration 9
-0.0160627 0.00340151 -0.0158737
-0.0151178 -0.00907068 -0.013795
-0.00472431 -0.0154958 -0.00226767
0.00396842 -0.0100155 -0.000566918
0.00283459 -0.00321253 -0.00151178
-0.0062361 0.0062361 -0.00718096
0.0143619 -0.00321253 0.00359048
-0.00472431 0.0224877 -0.00113384
-0.00283459 0.0393063 0.00548021
-0.0245664 0.00944863 -0.0192752
-0.0156847 -0.00132281 -0.0122832
-0.0105825 -0.00661404 -0.00642507
-0.0143619 -0.00170075 -0.0075589
-0.0313695 0.0151178 -0.0190862
-0.0364717 0.0202201 -0.0251334
-0.00075589 -0.013606 0.00302356
-0.00453534 -0.0153068 0.00850377
-0.0154958 -0.00736993 0.00888171
-0.0177634 0.0126612 0.00510226
-0.0075589 0.0238105 0.00132281
0.00472431 0.00982658 0.00944863
0.00566918 -0.0100155 0.0132281
-0.0107714 0.0585815 -0.00888171
0.0315584 -0.0400622 0.0249444
0.0219208 -0.00283459 0.0183303
0.0119053 -0.00396842 0.000377945
0.0100155 -0.00736993 0
0.0119053 -0.00680301 0.000566918
0.0122832 -0.00566918 0.00226767
0.00642507 -0.0109604 -0.00113384
0.00510226 -0.0145509 -0.00132281
0.00774788 -0.013606 -0.000566918
0.0113384 -0.00982658 0.000188973
0.0179524 -0.00226767 0.00718096
0.0124722 -0.00170075 -0.00245664
0.0257003 -0.00377945 0.0200311
-0.0238105 -0.013606 -0.0190862
0.0156847 -0.00869274 -0.00340151
-0.0109604 -0.00680301 -0.0107714
-0.00151178 -0.0158737 -0.000188973
-0.0398732 0.0234326 -0.0228657
-0.048377 0.0313695 -0.0330702
-0.0236216 -0.0149288 0.0102045
-0.0262672 0.0202201 0.00264562
0.0122832 0.0151178 0.0105825
0.0153068 -0.0202201 0.0177634
-0.00510226 -0.0591484 0.0393063
-0.0377945 0.175933 0.0791795
0.00699199 0.0956201 -0.148721
0.05518 -0.0612271 0.041385
0.00869274 -0.068975 0.0222988
0.05518 -0.0102045 0.02759
0.00434637 -0.0113384 -0.00188973
0.00188973 -0.0177634 -0.00188973
0.00680301 -0.0160627 -0.00075589
0.0134171 -0.00944863 0.000944863
0.0308025 -0.00340151 0.0313695
Vibration 10
-0.00529123 -0.000566918 -0.00642507
-0.00472431 -0.00585815 -0.00453534
-0.00075589 -0.00831479 0.00170075
0.00245664 -0.00604712 0.00188973
0.00170075 -0.00377945 0.000944863
-0.00151178 0.000377945 -0.00264562
0.00566918 -0.00359048 0.00264562
-0.00075589 0.00774788 -0.0020787
0 0.0156847 -0.000944863
-0.0100155 0.00283459 -0.00850377
-0.00680301 -0.00226767 -0.00548021
-0.00736993 -0.00264562 -0.00377945
-0.0111494 0.00170075 -0.00510226
-0.0179524 0.00944863 -0.0102045
-0.0173855 0.00982658 -0.0119053
-0.00793685 -0.00151178 -0.00132281
-0.00075589 -0.00510226 0.00718096
-0.00793685 -0.00377945 0.0109604
-0.00831479 0.0103935 0.00793685
-0.00302356 0.0221098 0.00151178
0.00377945 0.0166296 0.00075589
0.00548021 0.00283459 0.00359048
-0.0041574 0.0283459 -0.0143619
0.0107714 -0.0164406 0.0117163
0.00812582 -0.00359048 0.0075589
0.00529123 -0.0041574 0.00132281
0.00585815 -0.00529123 0.00075589
0.00661404 -0.00529123 0.00113384
0.00548021 -0.00604712 0.0020787
0.00529123 -0.00604712 -0.000188973
0.00604712 -0.00680301 -0.000566918
0.00718096 -0.00661404 0
0.0075589 -0.00585815 0.00075589
0.00642507 -0.00718096 0.00340151
0.00548021 -0.00340151 0.000566918
0.00944863 -0.0041574 0.00774788
-0.00812582 -0.0075589 -0.00718096
0.00585815 -0.00566918 0.000566918
-0.00302356 -0.00642507 -0.0041574
-0.00396842 -0.00680301 -0.000944863
-0.0236216 0.0151178 -0.0126612
-0.0221098 0.0149288 -0.0154958
-0.0124722 -0.0117163 0.0158737
-0.0160627 0.0134171 0.0105825
0.0105825 0.0249444 -0.0020787
0.0107714 -0.000188973 0.00302356
-0.0181414 0.375489 -0.157414
-0.00283459 -0.267018 -0.260782
0.00831479 -0.0379835 0.34771
0.0226767 -0.027401 0.020598
-0.00113384 -0.0319364 0.0122832
0.0249444 -0.00113384 0.0122832
0.00434637 -0.00604712 -0.000566918
0.00548021 -0.00736993 -0.00113384
0.0075589 -0.00699199 -0.000377945
0.00850377 -0.00585815 0.00132281
0.0113384 -0.00396842 0.0117163
Vibration 11
-0.0102045 -0.00396842 -0.0173855
-0.0107714 0.000188973 -0.034393
-0.0102045 -0.000377945 -0.0202201
-0.00944863 -0.00226767 -0.00850377
-0.013795 -0.00075589 -0.0153068
-0.0103935 -0.00925966 0.00132281
-0.00982658 0.00548021 -0.0166296
-0.0151178 -0.0442196 0.062172
-0.020787 -0.0861715 0.124344
-0.00850377 -0.00812582 -0.0105825
-0.00321253 -0.0164406 -0.00585815
0.00151178 -0.020976 -0.00113384
-0.00170075 -0.0173855 -0.00226767
-0.00661404 -0.0102045 -0.00680301
-0.0096376 -0.00699199 -0.0107714
0.00283459 -0.0221098 0.00283459
-0.0100155 0 -0.0143619
-0.0160627 0.00548021 -0.0158737
-0.0162516 0.00850377 -0.00850377
-0.00982658 0.00491329 0.00132281
-0.00340151 -0.00113384 0.00359048
-0.00359048 -0.00340151 -0.00472431
-0.00982658 0.0075589 0.00982658
-0.0217318 -0.000377945 -0.0124722
-0.0170075 0.0404401 -0.0393063
0.0272121 -0.00226767 -0.0111494
0.00661404 0.0105825 -0.00302356
0.0221098 0.0198421 -0.00188973
0.0389284 0.0406291 0.0175745
-0.0153068 -0.0111494 -0.00132281
-0.0177634 -0.0221098 -0.00302356
0.00264562 -0.00907068 -0.00283459
0.0239995 0.0109604 -0.00283459
0.096565 0.0999665 0.062172
0.0791795 -0.034204 -0.0202201
-0.0376055 0.0583925 -0.00850377
-0.00925966 0.000377945 -0.0493218
-0.0279679 -0.0120942 -0.0102045
-0.0020787 -0.0192752 -0.00661404
0.00699199 -0.0268341 0.00283459
-0.00812582 -0.0075589 -0.00642507
-0.0134171 -0.00359048 -0.0130391
-0.020787 0.00793685 -0.0228657
-0.0213539 0.013795 -0.0107714
0.00188973 -0.00396842 0.0115273
0.0020787 -0.00812582 -0.00321253
-0.0171965 0.0272121 0.00491329
-0.00566918 -0.00812582 -0.00170075
-0.0062361 0.00472431 0.0326923
-0.0213539 -0.00151178 -0.0111494
-0.0145509 0.013795 -0.034393
-0.0461093 0.00132281 -0.00188973
-0.0308025 -0.020976 -0.0020787
-0.0362827 -0.0402512 -0.0041574
0.00151178 -0.0147399 -0.00340151
0.0396842 0.0213539 -0.00170075
-0.0496998 0.076156 -0.0309915
Vibration 12
-0.0198421 0.00453534 -0.00226767
-0.0190862 -0.00359048 0.000377945
-0.0122832 -0.00793685 -0.00396842
-0.00472431 -0.00396842 -0.00982658
-0.00510226 0.00396842 -0.0096376
-0.0134171 0.0096376 -0.00831479
0.0122832 0.00226767 0.000188973
-0.0113384 0.0296687 -0.0141729
-0.00850377 0.0538572 -0.020409
-0.013795 -0.000377945 0.00113384
-0.027779 0.0170075 -0.0102045
-0.00510226 0.00170075 -0.00283459
0.0296687 -0.0298577 0.0151178
0.0440306 -0.0474321 0.0262672
0.0217318 -0.0315584 0.0194642
0.0578256 -0.0496998 0.0260782
-0.0122832 -0.0113384 0.00321253
-0.0183303 -0.0103935 0.00736993
-0.0190862 -0.00170075 0.0075589
-0.0145509 0.00566918 0.00359048
-0.00831479 0 0.00529123
-0.00774788 -0.00888171 0.00529123
-0.0162516 0.0211649 -0.00396842
-0.0536682 0.0377945 -0.0529123
0.0245664 0.00075589 0.0234326
0.0105825 0.00132281 -0.00321253
0.00453534 0 -0.00188973
0.00566918 0.00321253 -0.00377945
0.0062361 0.00340151 -0.00453534
-0.00075589 -0.00434637 0.00113384
-0.00377945 -0.00453534 0.0020787
-0.000377945 0.000566918 -0.000188973
0.00434637 0.00434637 -0.00302356
0.013795 0.0105825 0.00151178
0.0175745 0.00075589 -0.00793685
0.0285349 -0.00302356 0.0177634
-0.0245664 -0.00642507 0.00529123
0.0160627 -0.00529123 -0.0122832
-0.0559359 0.0427078 -0.0243775
-0.0149288 0.0141729 -0.0107714
0.0750221 -0.076156 0.0419519
0.0332592 -0.0447865 0.0279679
-0.0222988 -0.0153068 0.00907068
-0.0236216 0 0.00907068
-0.00377945 0.00340151 0.00566918
-0.00340151 -0.0126612 0.0062361
-0.0166296 0.0440306 -0.0134171
-0.027401 0.00907068 -0.0181414
-0.0062361 0.0230547 0.0124722
-0.0693529 0.0580146 -0.0714316
-0.0113384 0.107147 -0.119809
-0.157036 0.0100155 -0.0228657
-0.00283459 -0.0075589 0.00245664
-0.00850377 -0.00850377 0.00434637
-0.00188973 0.00132281 0.000566918
0.00642507 0.00793685 -0.00453534
0.0374166 -0.00340151 0.0374166
Vibration 13
0.00075589 0.00680301 -0.0272121
0.000377945 -0.000566918 -0.0270231
0.00642507 -0.00434637 -0.00170075
0.00925966 -0.00226767 0.00982658
0.00359048 -0.000566918 0.00188973
0.00396842 0.00302356 -0.00944863
-0.00132281 0.00434637 -0.0062361
0.00264562 -0.00642507 0.0062361
0.000944863 -0.0198421 0.0224877
-0.00359048 0.00907068 -0.0281569
-0.0109604 0.00283459 -0.0270231
-0.0062361 -0.00585815 -0.0128501
0.00510226 -0.00680301 -0.000566918
0.0062361 0.00472431 -0.00510226
0.00245664 0.0113384 -0.0188973
0.0181414 -0.0245664 0.0217318
0.00699199 -0.00869274 0.00585815
0.00718096 -0.00907068 0.00661404
0.00680301 -0.00529123 0.00321253
0.00736993 -0.00132281 -0.000566918
0.00831479 -0.0062361 0.00510226
0.00869274 -0.00982658 0.00831479
0.00604712 0.0100155 -0.0130391
-0.0166296 0.0141729 0.00774788
-0.00812582 0.00585815 -0.0170075
-0.00510226 0.0130391 0.00907068
0.0241885 0.0175745 0.00264562
-0.0183303 -0.0215429 0.0102045
0 -0.00359048 0.0096376
0.0680301 0.0561249 -0.00944863
0.0404401 0.0281569 -0.00472431
-0.0385504 -0.0451645 0.0109604
-0.062172 -0.0661404 0.0170075
0.00642507 0.0175745 0.0117163
-0.054991 0.0239995 0.0370386
-0.00850377 0.00831479 -0.0115273
-0.00491329 -0.00359048 -0.0430858
-0.00831479 0.0041574 0.00302356
-0.0194642 0.00302356 -0.0368497
-0.0096376 -0.0124722 -0.0105825
0.0120942 0.00642507 0.00321253
0.00585815 0.0177634 -0.020598
0.00680301 -0.0109604 0.00850377
0.00585815 -0.00396842 0.00245664
0.00869274 -0.00642507 0.00548021
0.0102045 -0.0128501 0.0107714
0.0109604 0.0166296 -0.0181414
-0.00661404 0.00982658 -0.0179524
0.0122832 0.0134171 -0.0141729
-0.013795 0.00321253 0.0202201
-0.0075589 0.0349599 -0.0328812
-0.0514005 0.0294797 0.0279679
0.120753 0.105258 -0.020409
0.0765339 0.0602823 -0.0130391
-0.0763449 -0.0814472 0.0175745
-0.111116 -0.113195 0.0262672
-0.0134171 0.00718096 -0.0222988
Vibration 14
-0.0041574 -0.0162516 0.034582
-0.00359048 -0.0096376 0.0298577
-0.00888171 -0.00642507 -0.00850377
-0.00982658 -0.0096376 -0.0228657
-0.00585815 0.000944863 -0.0171965
-0.00604712 -0.00793685 0.00604712
0.0113384 0.00113384 -0.0107714
-0.00510226 0.000188973 -0.0126612
-0.00359048 0.0103935 -0.0332592
0.00151178 -0.0219208 0.0400622
0.0126612 -0.0143619 0.0391173
0.00718096 -0.00245664 0.0185193
-0.0096376 -0.00151178 -0.000188973
-0.0096376 -0.0192752 0.00718096
-0.00510226 -0.0279679 0.0270231
-0.0294797 0.0257003 -0.0351489
-0.0096376 0.000188973 -0.0168186
-0.0173855 0.00359048 -0.013984
-0.0175745 0.00585815 -0.00396842
-0.0111494 0.00491329 0.00283459
-0.00453534 0.00850377 -0.00736993
-0.00491329 0.00548021 -0.0170075
-0.00982658 -0.000566918 0.0257003
0.0154958 -0.0281569 -0.020409
0.0228657 -0.00680301 0.0122832
0.00812582 0.0041574 -0.00661404
0.0119053 0.0113384 -0.00604712
-0.00982658 -0.00321253 -0.0062361
0.00661404 0.0119053 -0.00718096
0.0330702 0.0311805 -0.00566918
0.0185193 0.0236216 -0.00226767
-0.0217318 -0.00812582 0.00170075
-0.0330702 -0.0200311 -0.00113384
0.0360938 0.0561249 0.0126612
0.00245664 0.00245664 -0.000188973
0.0325033 -0.013795 0.00321253
0.00151178 -0.00661404 0.0519675
0.0175745 -0.00188973 -0.0219208
0.0247554 -0.0147399 0.0529123
0.0132281 0.00699199 0.0156847
-0.0164406 -0.0234326 -0.00396842
-0.0100155 -0.0383614 0.0302356
-0.0228657 0.00264562 -0.0183303
-0.0226767 0.00661404 -0.000566918
0.00113384 0.0119053 -0.00585815
-0.000377945 0.00642507 -0.0215429
-0.0230547 0.000566918 0.0313695
0.00604712 -0.0041574 0.0285349
-0.0105825 -0.00321253 0.0366607
0.00718096 -0.0062361 -0.0440306
0.0062361 -0.0540462 0.0421409
0.0629279 -0.0587705 -0.0517785
0.0597153 0.0514005 -0.00793685
0.0364717 0.0408181 -0.0020787
-0.041196 -0.020787 0.00604712
-0.0578256 -0.0391173 0.000188973
0.0428968 -0.0190862 0.0245664
Vibration 15
0.000566918 -0.00831479 0.00566918
0.00226767 -0.0115273 -0.013984
0.00302356 -0.0122832 -0.0119053
0.00321253 -0.0124722 0.0175745
0.0096376 -0.013795 0.027401
0.00661404 -0.0096376 0.0183303
-0.0020787 -0.00585815 0.0132281
0.00944863 0.0156847 0.0115273
0.013984 0.055369 0.00226767
-0.0075589 -0.00283459 0.00113384
-0.0128501 0.00170075 -0.00245664
-0.0109604 0.000944863 -0.00321253
-0.00453534 -0.00604712 -0.000566918
-0.00661404 -0.00548021 -0.00132281
-0.00812582 -0.00453534 -0.000566918
0.00888171 -0.0151178 0.0041574
0.000566918 0.00982658 -0.0436527
-0.0107714 0.0270231 -0.0544241
-0.0113384 0.0317474 -0.0379835
0.0020787 0.0171965 -0.00944863
0.0113384 0.0313695 -0.0357158
0.0102045 0.0270231 -0.0527234
0.00888171 -0.0241885 0.0697309
-0.00529123 -0.00718096 -0.00907068
-0.0115273 0.013795 -0.00510226
-0.0041574 -0.00566918 0.0107714
0.00359048 -0.0100155 0.00793685
0.00718096 -0.0126612 0.0122832
0.00226767 -0.0130391 0.0173855
0.00604712 -0.0102045 -0.00188973