[Molden Format]
[FREQ]
-1211.2
13.8
17.7
19.9
21.6
25.7
43.7
45.2
46.6
60.4
74.5
81.4
91.8
100.1
120.2
126.2
143.0
160.0
165.8
183.4
185.5
207.8
221.1
222.7
235.0
245.0
253.9
266.5
286.3
300.4
308.1
324.2
325.9
345.6
350.3
354.9
362.6
378.0
405.5
420.7
456.2
476.1
486.4
488.5
506.1
507.6
519.8
546.0
560.9
579.3
593.5
610.0
611.7
620.2
633.0
638.1
648.7
671.9
709.2
716.7
741.3
752.3
776.8
802.4
806.0
822.7
842.0
855.8
879.4
882.8
895.7
900.9
930.2
962.9
971.8
997.0
998.2
1008.7
1009.2
1016.3
1017.3
1018.4
1032.5
1038.6
1051.3
1071.0
1077.1
1081.0
1083.4
1110.7
1125.8
1148.3
1169.7
1178.2
1181.9
1186.5
1192.2
1201.3
1217.2
1219.9
1226.1
1257.5
1260.8
1268.5
1274.0
1279.1
1284.0
1286.6
1296.0
1303.0
1310.2
1313.6
1322.5
1325.0
1334.3
1340.0
1346.9
1357.4
1363.2
1370.1
1381.5
1392.9
1427.3
1443.9
1479.4
1500.5
1517.4
1521.7
1527.8
1545.4
1569.1
1582.7
1592.5
1610.9
1636.6
1673.7
1695.7
1699.7
1707.9
1709.1
1724.0
1735.6
1998.2
2222.6
2427.0
2652.5
2653.5
2666.7
2673.2
2727.6
2744.8
2745.0
2745.3
2745.8
2747.8
2750.2
2755.0
2758.7
2762.9
2764.3
2766.4
2768.9
2770.4
2778.2
2779.4
       
[FR-COORD]
C 0.296876 -2.49293 -1.31052
C 2.92095 -2.49293 -1.31052
C 4.22392 -0.169319 -1.31052
N 3.00429 2.07076 -1.39556
C 0.454479 2.09741 -1.49175
C -1.00477 -0.177634 -1.38952
N -0.806157 4.37056 -1.86648
C -3.65719 -0.0419519 -1.29465
N -5.8419 0.15817 -1.18505
C -1.10398 -4.87965 -1.19261
C -0.921052 -6.61007 -3.18872
C -2.24651 -8.86433 -3.09915
C -3.75073 -9.38249 -0.970185
C -3.93668 -7.68722 1.04143
C -2.6014 -5.42427 0.908202
O -4.93748 -11.6492 -1.12628
C 6.99652 -0.0493218 -1.21528
C 8.3764 -1.92582 0.0328812
C 11.0009 -1.80639 0.102423
C 12.2717 0.190862 -1.06958
C 10.8912 2.08021 -2.29602
C 8.26755 1.96853 -2.36083
C 15.0828 0.335048 -0.997964
C -6.52787 -12.3558 0.91973
C -4.8702 6.31225 -0.992295
C -6.03692 5.1478 1.05088
C -4.53855 4.69011 3.23672
C -1.98213 5.31693 2.71402
C -1.59002 6.00744 0.0283459
C -5.20979 3.78323 5.60398
C -3.32554 3.55344 7.44344
C -0.83129 4.22014 6.93888
C -0.138139 5.11549 4.54611
O -0.0627389 7.70158 -0.909714
O -8.48298 3.98657 0.898754
O -5.34792 7.27337 -2.94911
H 3.95822 -4.26625 -1.29579
H -8.04891 2.10005 0.160249
H 0.260782 -6.16788 -4.82182
H -2.14862 -10.231 -4.63115
H -5.09149 -8.09521 2.68398
H -2.72272 -4.07557 2.46458
H 7.40376 -3.47691 0.97661
H 12.064 -3.26923 1.07752
H 11.8709 3.64925 -3.19383
H 7.17964 3.465 -3.29152
H 15.7174 1.88103 0.242641
H 15.8833 0.69901 -2.88164
H 15.9644 -1.40633 -0.294041
H -7.22915 -14.2115 0.303868
H -8.09653 -11.0249 1.13138
H -5.44279 -12.5387 2.67075
H -7.15035 3.2902 6.02974
H -3.82934 2.84706 9.31011
H 0.595831 4.04515 8.40512
H 1.81754 5.62326 4.13264
H -9.31125 4.74378 -0.69334

[FR-NORM-COORD]
Vibration 1
0.00831479 -0.0145509 0.00245664
-0.0041574 -0.00793685 0.000566918
-0.0111494 0.0126612 -0.00170075
-0.00377945 -0.00396842 0
-0.0636838 -0.0376055 -0.0262672
-0.0130391 -0.0445975 0.00340151
-0.0801244 -0.192752 0.0171965
0.00510226 -0.00812582 0.00132281
-0.00774788 0.0190862 0.00604712
-0.000188973 -0.00566918 0.000944863
-0.000188973 -0.00075589 -0.000377945
-0.00113384 -0.00113384 0
0.00075589 0.00151178 0
-0.00113384 -0.000944863 0.000188973
0.000188973 -0.000566918 -0.000188973
-0.00075589 -0.00113384 0.000188973
-0.000566918 0.000566918 0.000566918
-0.000944863 0.00075589 -0.000188973
0.000377945 0.000188973 0
-0.000566918 -0.000188973 0
0.000566918 -0.000188973 0.000188973
-0.000377945 -0.000566918 0
0.00075589 0 0.000188973
0.000188973 0 -0.000377945
-0.209004 -0.0351489 -0.0793685
0.0141729 0.0262672 -0.00888171
0.0211649 0.00075589 0.00283459
-0.0151178 0.0113384 -0.0217318
0.473565 -0.00396842 -0.0459203
0.0020787 0.00472431 -0.0075589
0.00170075 -0.000566918 0.00075589
-0.00340151 0.000944863 -0.00396842
-0.00472431 0.00264562 -0.0062361
-0.121509 0.237161 0.135871
0.0192752 -0.00944863 -0.00699199
0.0306136 0.0147399 -0.00529123
-0.000377945 0.0020787 -0.00377945
0.0954312 -0.109415 -0.0238105
0.00510226 0.00113384 0.00283459
-0.000188973 -0.00075589 0.000944863
0.00075589 -0.00113384 -0.000944863
0.00396842 -0.00132281 -0.00245664
-0.00151178 0.00075589 -0.00264562
-0.000566918 0.00075589 -0.00151178
-0.000188973 -0.00113384 0.000944863
-0.00680301 0.00113384 0.00359048
-0.000566918 -0.000566918 0
-0.000944863 -0.000377945 0.000188973
-0.000944863 -0.000188973 -0.000377945
-0.000188973 0.000377945 0.00075589
0.000944863 0 0.000188973
0.000188973 0.000944863 -0.000377945
-0.000377945 0.00170075 -0.0062361
-0.00170075 -0.00264562 -0.00113384
0.00472431 -0.00377945 -0.00434637
0.00188973 -0.00132281 -0.013795
-0.0512116 -0.0498888 0.0255113
Vibration 2
-0.00226767 -0.0105825 0.00396842
-0.00226767 -0.00944863 -0.00075589
-0.00321253 -0.00888171 0.00529123
-0.00396842 -0.00925966 0.0100155
-0.0041574 -0.0102045 0.0124722
-0.00321253 -0.0107714 0.0153068
-0.00585815 -0.0128501 0.0062361
-0.00264562 -0.0100155 0.0285349
-0.00188973 -0.00888171 0.0404401
-0.000377945 -0.0122832 -0.00661404
-0.0130391 0.00642507 -0.0239995
-0.0100155 0.00434637 -0.0355268
0.00566918 -0.0168186 -0.0296687
0.0179524 -0.0355268 -0.0128501
0.0145509 -0.0326923 -0.00151178
0.00736993 -0.0168186 -0.0419519
-0.00321253 -0.00850377 0.00491329
-0.00245664 -0.0117163 -0.00075589
-0.00245664 -0.0115273 -0.00113384
-0.00321253 -0.00793685 0.0041574
-0.00377945 -0.00472431 0.00982658
-0.00377945 -0.00491329 0.0102045
-0.00302356 -0.00793685 0.00340151
0.0221098 -0.0374166 -0.0376055
-0.00491329 -0.0100155 -0.00548021
-0.000944863 0.00850377 0.00718096
0.00188973 0.0334482 0.0105825
0.000944863 0.0289128 0.00113384
-0.00226767 0.0020787 -0.00585815
0.0041574 0.0616051 0.0219208
0.00566918 0.0846597 0.0232436
0.00510226 0.0793685 0.0132281
0.00264562 0.0510226 0.00188973
-0.00321253 -0.00661404 -0.0238105
0.00113384 0.00226767 0.0211649
-0.00736993 -0.0287238 -0.0141729
-0.00151178 -0.00907068 -0.0096376
0.00377945 -0.00245664 0.0332592
-0.0247554 0.0226767 -0.0283459
-0.0196532 0.0185193 -0.0489439
0.0298577 -0.0517785 -0.00850377
0.0238105 -0.0468652 0.0115273
-0.0020787 -0.0145509 -0.00510226
-0.0020787 -0.0141729 -0.00548021
-0.0041574 -0.0020787 0.013984
-0.00434637 -0.00264562 0.0147399
-0.00264562 -0.0075589 0.00283459
-0.00377945 -0.00831479 0.00302356
-0.00283459 -0.0075589 0.00359048
0.0196532 -0.0323143 -0.0498888
0.0222988 -0.0408181 -0.0141729
0.034582 -0.0525344 -0.0468652
0.00472431 0.0657625 0.0292908
0.0075589 0.107147 0.0323143
0.00642507 0.0975099 0.0141729
0.0020787 0.0470542 -0.00585815
-0.00453534 -0.0105825 0.0183303
Vibration 3
-0.00869274 0.000944863 -0.0122832
-0.00850377 0.00283459 -0.00869274
-0.0109604 0.0041574 -0.0102045
-0.0117163 0.00302356 -0.020598
-0.0117163 0.000566918 -0.0226767
-0.0100155 0 -0.0164406
-0.0143619 -0.000566918 -0.0236216
-0.0100155 -0.00170075 -0.00831479
-0.0096376 -0.00170075 0.000188973
-0.00699199 0.000188973 -0.0100155
-0.0096376 0.00075589 -0.0105825
-0.00812582 -0.000188973 -0.00850377
-0.00396842 -0.00132281 -0.00585815
-0.00132281 -0.00170075 -0.00529123
-0.00283459 -0.000944863 -0.00736993
-0.00283459 -0.0020787 -0.00396842
-0.0115273 0.00548021 0.0041574
-0.020976 0.0253223 0.0442196
-0.0215429 0.027401 0.0629279
-0.0134171 0.00925966 0.0410071
-0.00434637 -0.0107714 -0.000188973
-0.00377945 -0.0124722 -0.0185193
-0.013984 0.0122832 0.0627389
0.00075589 -0.00283459 -0.00151178
-0.00850377 -0.00226767 0.0096376
0.00831479 -0.00491329 0.0183303
0.0270231 -0.00718096 0.00491329
0.0215429 -0.00226767 -0.0160627
-0.00264562 0.000944863 -0.0194642
0.0496998 -0.0132281 0.00888171
0.0667073 -0.013984 -0.00831479
0.0608492 -0.00850377 -0.0287238
0.0381725 -0.00245664 -0.0330702
-0.0115273 0.00321253 -0.0289128
0.00642507 -0.00340151 0.0370386
-0.027401 -0.0020787 0.0141729
-0.00661404 0.0041574 -0.00377945
-0.00245664 -0.00075589 0.0292908
-0.0130391 0.00170075 -0.0126612
-0.0102045 0.000188973 -0.00888171
0.00188973 -0.00264562 -0.00321253
-0.00075589 -0.00132281 -0.00699199
-0.0285349 0.0402512 0.0610381
-0.0287238 0.0434637 0.0946753
0.00226767 -0.0249444 -0.0177634
0.00264562 -0.02759 -0.0498888
-0.0258892 0.0173855 0.0625499
0.00151178 0.0062361 0.0682191
-0.0183303 0.0154958 0.0763449
0.00075589 -0.00321253 -0.000377945
0.000377945 -0.00377945 0.00113384
0.00359048 -0.00245664 -0.00321253
0.0544241 -0.0175745 0.0253223
0.0842818 -0.0188973 -0.00529123
0.0740773 -0.00888171 -0.0417629
0.0338261 0.00132281 -0.0496998
-0.00661404 0.000566918 0.0451645
Vibration 4
0.00151178 -0.00226767 0.00850377
0.00188973 0.000377945 0.00907068
0 0.00113384 0.00548021
-0.00075589 0.000566918 0.00434637
-0.000944863 -0.00151178 0.00642507
0.000377945 -0.00264562 0.00774788
-0.00302356 -0.00302356 0.00548021
0.000566918 -0.00188973 0.00680301
0.000566918 -0.000944863 0.00680301
0.00491329 -0.00396842 0.00548021
0.062361 -0.0308025 0.0334482
0.0650066 -0.0323143 0.027401
0.00850377 -0.0075589 -0.00642507
-0.048377 0.0181414 -0.0334482
-0.0493218 0.0188973 -0.0270231
0.0171965 -0.0119053 -0.00888171
0.000188973 0.00132281 0.000188973
0.000566918 0.0156847 0.0211649
0.00075589 0.013984 0.0141729
0.000188973 -0.00226767 -0.0141729
-0.000377945 -0.0160627 -0.034582
-0.00075589 -0.013795 -0.0272121
0.000566918 -0.00472431 -0.0221098
-0.0440306 0.0158737 -0.0468652
-0.00321253 -0.0041574 0.00434637
-0.00113384 -0.00132281 0.00718096
0.000188973 0.00510226 0.0075589
-0.000566918 0.00585815 0.00491329
-0.00226767 0 0.00321253
0.00188973 0.0107714 0.0102045
0.00264562 0.0175745 0.0102045
0.00188973 0.0183303 0.0075589
0.000377945 0.0122832 0.00472431
-0.00377945 -0.00113384 -0.00151178
0.000188973 -0.00434637 0.0100155
-0.00510226 -0.00793685 0.00283459
0.0041574 0.00170075 0.0120942
0.00170075 -0.00302356 0.00642507
0.10488 -0.0496998 0.0589595
0.109604 -0.0525344 0.048188
-0.0912738 0.0372276 -0.0587705
-0.0927855 0.0379835 -0.0468652
0.000377945 0.0289128 0.0427078
0.00132281 0.0253223 0.0306136
-0.000566918 -0.0283459 -0.0563138
-0.00132281 -0.0241885 -0.0428968
0.00491329 -0.00170075 -0.0279679
-0.00340151 -0.0109604 -0.0249444
0.000566918 -0.00359048 -0.0190862
-0.0253223 0.00736993 -0.0425188
-0.0504557 0.0185193 -0.111683
-0.0959981 0.0396842 -0.0119053
0.00245664 0.0102045 0.0122832
0.00396842 0.0222988 0.0122832
0.00264562 0.0238105 0.0075589
-0.000188973 0.0128501 0.00264562
-0.00396842 -0.00283459 0.0130391
Vibration 5
-0.00283459 -0.00661404 -0.00718096
-0.00264562 -0.0062361 -0.0103935
-0.00188973 -0.00661404 -0.00699199
-0.00359048 -0.00680301 -0.00548021
-0.00302356 -0.00699199 -0.00718096
-0.00321253 -0.00680301 -0.00585815
-0.00283459 -0.00699199 -0.00831479
-0.00302356 -0.00510226 -0.00188973
-0.00264562 -0.00283459 0.00226767
-0.00264562 -0.00642507 -0.00321253
0.0147399 -0.020787 0.0109604
0.0128501 -0.0196532 0.0149288
-0.00699199 -0.00396842 0.00472431
-0.0238105 0.0100155 -0.00869274
-0.0213539 0.00831479 -0.0124722
-0.00736993 -0.0041574 0.0096376
-0.00226767 -0.00151178 -0.00226767
0.00548021 -0.0332592 -0.0583925
0.00491329 -0.0232436 -0.0504557
-0.00226767 0.0192752 0.0147399
-0.00925966 0.0500777 0.0697309
-0.00831479 0.0387394 0.0608492
-0.00321253 0.0315584 0.0243775
-0.0302356 0.013606 -0.00188973
0.000377945 -0.00472431 0.000377945
0.00585815 -0.00264562 0.00472431
0.0117163 0 0.00113384
0.0102045 -0.000188973 -0.00680301
0.00226767 -0.00359048 -0.00907068
0.0188973 0.00283459 0.00434637
0.0243775 0.00566918 -0.000944863
0.0228657 0.00566918 -0.00888171
0.0156847 0.00264562 -0.0120942
0.00075589 -0.00529123 -0.0147399
0.00548021 -0.00264562 0.0120942
-0.00548021 -0.00699199 0.000566918
-0.00377945 -0.00680301 -0.0134171
0.00302356 -0.0020787 0.00888171
0.0294797 -0.0328812 0.0183303
0.0262672 -0.0306136 0.0255113
-0.0385504 0.0221098 -0.0160627
-0.034204 0.0187083 -0.0224877
0.0126612 -0.0676522 -0.107525
0.0100155 -0.0491329 -0.0944863
-0.0151178 0.0823921 0.119809
-0.0132281 0.061794 0.102612
-0.0128501 0.0226767 0.0402512
-0.00075589 0.0531013 0.0292908
0.00340151 0.0291018 0.00982658
-0.0268341 0.0103935 0.0041574
-0.0302356 0.0179524 -0.0283459
-0.0491329 0.0247554 0.0109604
0.020409 0.00302356 0.0105825
0.0300466 0.00793685 0.00151178
0.0270231 0.00774788 -0.0128501
0.0143619 0.00226767 -0.0187083
0 -0.00132281 0.0156847
Vibration 6
-0.020976 0.00907068 -0.013795
-0.020598 0.00453534 -0.0134171
-0.0154958 0.00132281 -0.00661404
-0.0111494 0.00396842 -0.00302356
-0.0109604 0.00869274 -0.00510226
-0.0164406 0.0115273 -0.00982658
-0.00453534 0.0132281 -0.000566918
-0.0160627 0.0190862 -0.0096376
-0.0151178 0.027779 -0.00907068
-0.0162516 0.00642507 -0.0141729
0.0124722 -0.00604712 -0.000944863
0.0370386 -0.0198421 0.00831479
0.0323143 -0.0215429 0.00472431
-0.00359048 -0.00529123 -0.0124722
-0.0279679 0.00869274 -0.0219208
0.0667073 -0.0406291 0.0194642
-0.0154958 -0.00661404 -0.00170075
-0.0230547 -0.0177634 -0.0102045
-0.0226767 -0.027401 -0.00699199
-0.0147399 -0.0255113 0.00510226
-0.00718096 -0.013795 0.0145509
-0.0075589 -0.00434637 0.0111494
-0.0143619 -0.0362827 0.00736993
0.0772898 -0.0515895 0.0238105
0.00529123 0.0300466 0.00680301
0.00151178 0.02759 0.00321253
0.000377945 0.0145509 0.00132281
0.00264562 0.0062361 0.00226767
0.0041574 0.0124722 0.00396842
-0.00226767 0.00982658 -0.00132281
-0.00245664 -0.00359048 -0.00283459
0 -0.0119053 -0.00188973
0.00264562 -0.00699199 0.00075589
0.0100155 0.00888171 0.00736993
-0.00359048 0.0383614 0.000377945
0.00831479 0.0393063 0.0105825
-0.0243775 0.00226767 -0.0168186
-0.0117163 0.0383614 -0.00113384
0.0175745 -0.00566918 0.00283459
0.0614161 -0.0306136 0.0194642
-0.0117163 -0.00377945 -0.0177634
-0.0544241 0.020409 -0.0340151
-0.0291018 -0.0196532 -0.0192752
-0.0287238 -0.0364717 -0.013795
-0.00075589 -0.0120942 0.0243775
-0.00151178 0.00453534 0.0183303
-0.00907068 -0.0383614 0.00718096
-0.0117163 -0.0400622 0.00774788
-0.0215429 -0.0394953 0.00850377
0.114139 -0.0710537 0.0408181
0.0514005 -0.0795575 0.00793685
0.0776677 -0.0134171 0.02759
-0.0041574 0.0164406 -0.0020787
-0.00453534 -0.0075589 -0.00491329
0 -0.0224877 -0.00302356
0.00453534 -0.013606 0.00151178
0.00113384 0.0434637 0
Vibration 7
-0.00359048 -0.0122832 0.00340151
-0.00321253 -0.013984 -0.00396842
-0.0020787 -0.0151178 -0.00982658
-0.00132281 -0.0147399 -0.00774788
-0.00132281 -0.0126612 0.000944863
-0.00264562 -0.0113384 0.00793685
0.00472431 -0.00925966 0.00245664
-0.00226767 -0.00566918 0.0170075
-0.00113384 0.00132281 0.0249444
-0.00434637 -0.0120942 0.00359048
-0.00491329 -0.0107714 0.00245664
-0.00548021 -0.0105825 0.000566918
-0.00566918 -0.0119053 0
-0.00491329 -0.013606 0.00151178
-0.00434637 -0.013606 0.00321253
-0.0062361 -0.0115273 -0.0020787
-0.0020787 -0.00831479 -0.0160627
0.00642507 0.00680301 -0.00302356
0.00529123 0.0258892 0.00491329
-0.00453534 0.0289128 -0.00132281
-0.0128501 0.0096376 -0.020787
-0.0120942 -0.00888171 -0.0283459
-0.00661404 0.054991 0.0247554
-0.00736993 -0.0126612 -0.00340151
0.0179524 0.0164406 -0.0020787
0.00774788 0.0230547 -0.0041574
0.00170075 0.0126612 -0.0020787
0.00680301 -0.00491329 0.0020787
0.0145509 -0.00529123 0.00321253
-0.00888171 0.0164406 -0.00359048
-0.0132281 0.00075589 -0.00113384
-0.00736993 -0.0179524 0.00264562
0.00264562 -0.020787 0.00453534
0.0243775 -0.0134171 0.00510226
0.00188973 0.0355268 -0.00812582
0.027779 0.020598 -0.00245664
-0.00377945 -0.0143619 -0.00529123
-0.00491329 0.0268341 0.0162516
-0.00491329 -0.00982658 0.00264562
-0.00585815 -0.00925966 -0.000566918
-0.00491329 -0.0145509 0.00113384
-0.0041574 -0.0149288 0.0041574
0.0134171 0.00548021 0.00170075
0.0126612 0.0396842 0.0173855
-0.0213539 0.0107714 -0.0283459
-0.0188973 -0.0224877 -0.0419519
-0.0362827 -0.0857936 0.216374
0.0041574 0.29253 0.075967
0.00982658 -0.0190862 -0.178579
-0.00793685 -0.0119053 -0.00529123
-0.00699199 -0.0122832 -0.00283459
-0.00812582 -0.0145509 -0.00302356
-0.0132281 0.0311805 -0.00661404
-0.0211649 0.00340151 -0.00226767
-0.0107714 -0.0306136 0.00434637
0.00699199 -0.034771 0.00793685
0.0177634 0.0217318 -0.0234326
Vibration 8
0.00491329 0.00680301 -0.0251334
0.00434637 0.00699199 -0.0287238
0.0041574 0.00736993 -0.0168186
0.00491329 0.00812582 -0.00566918
0.00453534 0.00831479 -0.00548021
0.00510226 0.00718096 -0.0170075
-0.00075589 0.00680301 0.00566918
0.00529123 0.00434637 -0.0188973
0.00453534 0 -0.0213539
0.00359048 0.00793685 -0.0198421
0.0020787 -0.00151178 -0.0115273
0.00113384 -0.00075589 0.000377945
0.00226767 0.0100155 0.00359048
0.00283459 0.020409 -0.00491329
0.00359048 0.0188973 -0.0166296
0.0020787 0.00944863 0.0166296
0.0041574 0.00113384 -0.0100155
-0.00642507 -0.00434637 -0.00585815
-0.00642507 -0.0149288 0.00132281
0.00472431 -0.0198421 0.0041574
0.0154958 -0.0143619 0.00132281
0.0147399 -0.00377945 -0.00585815
0.00472431 -0.0311805 0.020787
0.00793685 0.0183303 0.0245664
-0.0122832 -0.0179524 0.00604712
-0.00585815 -0.0230547 0.00642507
-0.00472431 -0.00925966 0.00869274
-0.0075589 0.00245664 0.00869274
-0.00831479 -0.000377945 0.00850377
-0.00245664 -0.00359048 0.0115273
-0.00377945 0.0160627 0.0153068
-0.00699199 0.0285349 0.0156847
-0.00888171 0.0211649 0.0122832
-0.0145509 0.00529123 0.00774788
0.00132281 -0.0374166 0.00661404
-0.0156847 -0.0213539 0.00529123
0.00491329 0.00718096 -0.0379835
0.0117163 -0.0287238 -0.0188973
0.00151178 -0.0100155 -0.0141729
0.000188973 -0.00831479 0.00699199
0.00283459 0.0292908 -0.00264562
0.00491329 0.0266451 -0.0230547
-0.0151178 -0.000377945 -0.00793685
-0.0143619 -0.0183303 0.00472431
0.0234326 -0.0175745 0.00453534
0.0230547 0.000566918 -0.00812582
0.00075589 -0.16913 0.195398
0.013606 0.177256 0.0653845
-0.000188973 -0.110738 -0.168942
0.00944863 0.013795 0.0366607
0.0062361 0.0171965 0.020409
0.0120942 0.0300466 0.0232436
-0.000188973 -0.0132281 0.0107714
-0.00226767 0.0219208 0.0179524
-0.00812582 0.0442196 0.0187083
-0.0113384 0.0306136 0.0128501
-0.0141729 -0.0230547 0.0224877
Vibration 9
0.00188973 -0.00774788 -0.0334482
0.0020787 -0.00944863 -0.047999
0.00302356 -0.0100155 -0.0366607
0.00472431 -0.00869274 -0.0175745
0.0041574 -0.00585815 -0.00680301
0.00340151 -0.00604712 -0.0149288
0.00491329 -0.00321253 0.0113384
0.00396842 -0.00245664 -0.00472431
0.00472431 0.00151178 0.00321253
-0.000566918 -0.00585815 -0.0257003
-0.0041574 -0.0177634 -0.0154958
-0.00661404 -0.0158737 -0.000944863
-0.00529123 -0.0020787 0.00340151
-0.00264562 0.0105825 -0.00699199
-0.000377945 0.00793685 -0.0215429
-0.00718096 -0.00226767 0.0192752
0.00283459 -0.00907068 -0.0321253
-0.000944863 -0.000377945 -0.0154958
-0.00188973 0.0115273 0.00925966
0 0.0141729 0.0162516
0.00359048 0.000566918 -0.00925966
0.00472431 -0.0107714 -0.0332592
-0.00151178 0.0323143 0.0451645
-0.00188973 0.0107714 0.0279679
0.00718096 -0.00264562 0.00680301
0.00283459 -0.000944863 0.00472431
-0.00359048 0.00340151 0.0100155
-0.000566918 -0.00453534 0.0154958
0.00850377 -0.00850377 0.0166296
-0.0143619 0.0166296 0.0122832
-0.0219208 0.0219208 0.020409
-0.0183303 0.0130391 0.0255113
-0.00774788 -0.000944863 0.0234326
0.0130391 -0.0111494 0.0181414
0.00453534 -0.0041574 0
0.0154958 -0.00132281 0.00585815
0.00170075 -0.0096376 -0.0640617
0.0096376 -0.00359048 -0.00283459
-0.00510226 -0.0287238 -0.0190862
-0.00907068 -0.0251334 0.00718096
-0.00226767 0.0219208 -0.00377945
0.00226767 0.0171965 -0.0292908
-0.00340151 -0.00151178 -0.0198421
-0.00510226 0.0194642 0.0243775
0.00585815 -0.000377945 -0.00831479
0.00699199 -0.0200311 -0.0498888
-0.0226767 0.146265 -0.0865495
0.0192752 -0.133982 0.0213539
-0.00264562 0.0997775 0.212783
-0.00264562 0.0062361 0.0421409
-0.0020787 0.0115273 0.0226767
0.00226767 0.0228657 0.0266451
-0.0171965 0.0234326 0.00736993
-0.0304246 0.0334482 0.0224877
-0.0239995 0.0171965 0.0315584
-0.00510226 -0.00736993 0.0281569
0.00472431 -0.00245664 0.00132281
Vibration 10
0.00944863 0.00812582 -0.00396842
0.00925966 0.0117163 -0.0308025
0.00661404 0.0132281 -0.0289128
0.0041574 0.0119053 -0.0253223
0.00283459 0.00793685 -0.00585815
0.00604712 0.00680301 0.0177634
-0.00529123 0.00340151 -0.00831479
0.00680301 0.000566918 0.0589595
0.0075589 -0.0100155 0.0907068
0.0158737 0.00510226 0.0020787
0.0156847 0.00491329 0.0020787
0.0170075 0.00434637 0.00340151
0.0177634 0.00472431 0.00396842
0.0226767 0.00226767 0.00661404
0.0219208 0.00245664 0.00566918
0.0143619 0.00661404 0.00302356
0.00661404 0.0062361 -0.020598
-0.00869274 -0.00434637 -0.0183303
-0.00888171 -0.0181414 -0.00302356
0.00736993 -0.020598 0.0103935
0.0232436 -0.0103935 0.00812582
0.0226767 0.00283459 -0.0075589
0.00774788 -0.0355268 0.0287238
-0.0190862 0.0268341 -0.0160627
-0.0166296 -0.000188973 -0.00793685
-0.020409 0.0239995 0.00340151
-0.0166296 0.0147399 -0.00113384
-0.0134171 -0.00774788 -0.00925966
-0.0158737 -0.0020787 -0.00869274
-0.0173855 0.0156847 -0.000944863
-0.0119053 -0.013606 -0.0103935
-0.00642507 -0.041196 -0.0198421
-0.00736993 -0.0364717 -0.0183303
-0.0238105 0.00793685 -0.00377945
-0.0234326 0.02759 0.013606
-0.0153068 -0.0175745 -0.0170075
0.0113384 0.0126612 -0.0493218
-0.0247554 0.00888171 0.0719986
0.0132281 0.00604712 0.00075589
0.0158737 0.00453534 0.00321253
0.0268341 0.000377945 0.00888171
0.0255113 0.000944863 0.00736993
-0.0211649 -0.0020787 -0.027401
-0.0217318 -0.0264562 -0.00170075
0.0360938 -0.0126612 0.0183303
0.0349599 0.0105825 -0.00925966
0.00812582 -0.0372276 0.0306136
0.0219208 -0.0425188 0.0334482
-0.0062361 -0.0393063 0.0368497
-0.0319364 0.0338261 -0.0222988
-0.00699199 0.0442196 -0.0366607
-0.0421409 0.0170075 -0.00264562
-0.0213539 0.0372276 0.00604712
-0.0113384 -0.0151178 -0.0109604
-0.00113384 -0.0657625 -0.027779
-0.00377945 -0.055369 -0.0243775
-0.00529123 -0.0162516 -0.0177634
Vibration 11
0.00434637 0.00302356 0.0134171
0.00472431 -0.00264562 0.0113384
0.00944863 -0.00529123 0.00604712
0.013606 -0.00264562 0.00302356
0.013795 0.00245664 0.00774788
0.00944863 0.00604712 0.0170075
0.0132281 0.00075589 -0.000566918
0.0096376 0.00661404 0.0260782
0.0096376 0.00170075 0.0323143
-0.0102045 0.0113384 0.00321253
0.0075589 0.00453534 0.0105825
-0.00850377 0.013606 -0.00245664
-0.0393063 0.0270231 -0.020976
-0.0667073 0.0387394 -0.0334482
-0.0517785 0.0306136 -0.0213539
-0.0478101 0.0323143 -0.0306136
0.0100155 -0.0062361 0.000188973
0.0147399 -0.00340151 -0.000944863
0.0145509 0.00264562 -0.00132281
0.0103935 0.00548021 -0.000944863
0.00604712 0.000566918 -0.00377945
0.0062361 -0.00529123 -0.00321253
0.00982658 0.0151178 0.00245664
0.0820141 -0.0459203 0.0430858
-0.00151178 -0.0238105 -0.0113384
-0.00453534 0.00075589 0.00113384
-0.00321253 0.00340151 0.000566918
-0.00264562 -0.00510226 -0.00434637
-0.0041574 -0.00359048 -0.00453534
-0.00188973 0.00472431 0.00151178
0.00188973 -0.00793685 -0.0041574
0.0041574 -0.020409 -0.0102045
0.00151178 -0.0175745 -0.0096376
-0.0107714 0.00642507 0.00151178
-0.00604712 0.00245664 0.00812582
-0.0041574 -0.0555579 -0.0266451
0.00113384 -0.00453534 0.0120942
-0.00850377 -0.00321253 0.0239995
0.0351489 -0.00812582 0.0272121
0.00585815 0.00812582 0.00321253
-0.101289 0.055369 -0.0534792
-0.0723765 0.0389284 -0.0300466
0.0183303 -0.00548021 -0.000944863
0.0179524 0.00510226 -0.00113384
0.00226767 0.00188973 -0.00548021
0.00321253 -0.00831479 -0.00472431
0.00283459 0.0196532 0.000377945
0.0111494 0.0141729 0.00283459
0.0147399 0.0194642 0.00718096
0.122643 -0.0678412 0.0625499
0.0417629 -0.106958 0.129257
0.173477 -0.0185193 -0.0107714
-0.00321253 0.013984 0.00604712
0.00359048 -0.00888171 -0.00396842
0.00774788 -0.0321253 -0.0149288
0.00283459 -0.0255113 -0.013795
-0.00340151 -0.00925966 0.00075589
Vibration 12
-0.00434637 0.00396842 0.0162516
-0.00529123 0.00170075 -0.0062361
-0.00359048 0.00151178 -0.0164406
-0.00113384 0.00226767 -0.0126612
-0.00283459 0.0062361 0.00888171
-0.00226767 0.00642507 0.0281569
-0.000188973 0.00699199 0.00642507
-0.00075589 -0.00188973 0.0495108
-0.00226767 -0.0222988 0.0587705
-0.00548021 0.00472431 0.0160627
0.00245664 0.00736993 0.013984
0.00302356 0.00699199 0.00510226
-0.00472431 0.00302356 -0.00113384
-0.0130391 0 0.00075589
-0.0130391 0.000944863 0.00944863
-0.00359048 0.00340151 -0.0113384
-0.00321253 -0.00529123 -0.0236216
-0.00888171 -0.00982658 -0.0236216
-0.00944863 -0.0102045 -0.0100155
-0.00396842 -0.00566918 0.00377945
0.00245664 -0.00718096 -0.00585815
0.00264562 -0.00699199 -0.0198421
-0.00510226 0.00170075 0.0323143
0.0096376 -0.0149288 -0.0075589
0.000566918 0.0162516 -0.00151178
0.0109604 -0.0296687 -0.0226767
0.00925966 -0.0279679 -0.020787
0.000944863 0.0249444 -0.000566918
0.00585815 0.0187083 0
0.0143619 -0.0674632 -0.034582
0.00585815 -0.0330702 -0.0215429
-0.00850377 0.041574 0.00585815
-0.0102045 0.0680301 0.0153068
0.0141729 0.0041574 -0.0124722
0.0147399 -0.0334482 -0.02759
0.00359048 0.0517785 0.0154958
-0.00604712 0.00113384 -0.0160627
0.02759 -0.047999 -0.0120942
0.00869274 0.0102045 0.0192752
0.00944863 0.00944863 0.00359048
-0.0196532 -0.00283459 -0.00472431
-0.0192752 -0.00188973 0.0115273
-0.0132281 -0.0119053 -0.0315584
-0.0145509 -0.0126612 -0.00812582
0.00718096 -0.00699199 -0.000377945
0.00718096 -0.00699199 -0.0249444
-0.0222988 0.00982658 0.0309915
0.013795 -0.00604712 0.0389284
-0.00793685 0.00774788 0.0510226
0.0177634 -0.0162516 -0.0130391
0.00283459 -0.0249444 0.00491329
0.0179524 -0.0164406 -0.0130391
0.0239995 -0.12132 -0.0538572
0.00982658 -0.0634948 -0.0319364
-0.0177634 0.076156 0.0188973
-0.0196532 0.118675 0.0338261
0.020409 -0.0487549 -0.0353379
Vibration 13
0.0156847 -0.0170075 -0.0334482
0.0153068 -0.00170075 -0.0319364
0.00075589 0.00736993 0.00699199
-0.0109604 0.000377945 0.0187083
-0.0111494 -0.013606 0.00132281
0.00283459 -0.0224877 -0.0100155
-0.0175745 -0.0181414 -0.000944863
0.00340151 -0.0296687 0.0160627
0.00472431 -0.0287238 0.0417629
0.020409 -0.0200311 -0.0332592
0.0160627 -0.0351489 -0.0198421
-0.000566918 -0.0260782 -0.00812582
-0.0109604 -0.00170075 -0.00982658
-0.00075589 0.0109604 -0.0192752
0.0143619 0.000188973 -0.0313695
-0.0393063 0.0122832 0.00075589
-0.000566918 0.0217318 0.0309915
-0.00188973 0.0258892 0.0383614
-0.000944863 0.0166296 0.0236216
0.000188973 0.00283459 0.00113384
-0.000188973 0.013984 0.0188973
-0.00113384 0.0238105 0.034393
0.00321253 -0.0291018 -0.0496998
0.0107714 0.0107714 0.0396842
-0.00472431 0.0268341 0.00604712
-0.00226767 0.00736993 -0.00396842
-0.000944863 0.00302356 -0.00510226
-0.000188973 0.000566918 -0.00434637
0 -0.00472431 -0.00510226
-0.00302356 0.00510226 -0.00510226
-0.0041574 0.00491329 -0.00396842
-0.00340151 0.00226767 -0.00321253
-0.000944863 -0.000377945 -0.00359048
0.00548021 -0.0177634 -0.0187083
0.0020787 -0.000188973 -0.00604712
0.00245664 0.0638727 0.0230547
0.0272121 0.00529123 -0.0531013
0.0128501 -0.0107714 0.0253223
0.0236216 -0.0548021 -0.0194642
-0.00566918 -0.0366607 0.00113384
-0.00661404 0.0300466 -0.0185193
0.020787 0.0103935 -0.0394953
-0.00359048 0.0340151 0.0498888
-0.000944863 0.0173855 0.0243775
0.000377945 0.0115273 0.0153068
-0.00170075 0.0289128 0.0434637
0.0449755 -0.0466762 -0.0493218
-0.0283459 -0.0234326 -0.061983
-0.00377945 -0.0453534 -0.0810692
-0.00302356 0.0103935 0.0565028
0.0149288 0.00982658 0.0772898
0.0529123 0.0111494 0.013795
-0.00377945 0.0075589 -0.00548021
-0.00566918 0.00699199 -0.00359048
-0.0041574 0.00226767 -0.00226767
-0.000188973 -0.00359048 -0.00340151
0.0124722 -0.02759 -0.0241885
Vibration 14
0.00812582 -0.00170075 0.0262672
0.0075589 0.00321253 0.027401
0.00566918 0.00491329 -0.0134171
0.0020787 0.0020787 -0.0406291
0.00113384 -0.00226767 -0.0245664
0.00510226 -0.00491329 -0.0041574
-0.0113384 -0.00680301 -0.0192752
0.00548021 -0.000188973 -0.0185193
0.00566918 0.00982658 -0.0291018
0.0134171 -0.00434637 0.0349599
0.0249444 -0.00075589 0.0323143
0.0154958 0.00491329 0.0143619
-0.00453534 0.00491329 0.000566918
-0.00283459 -0.00680301 0.0103935
0.00529123 -0.00982658 0.0270231
-0.0317474 0.0217318 -0.0319364
0.00642507 0.000944863 -0.0187083
0.00113384 -0.00566918 -0.0213539
0.00075589 -0.0111494 -0.0117163
0.00812582 -0.00774788 0.0020787
0.0151178 -0.00566918 -0.00245664
0.0147399 -0.00151178 -0.0134171
0.0075589 -0.00680301 0.0260782
0.0164406 -0.0230547 -0.0103935
-0.0224877 0.020787 0.0153068
-0.0141729 -0.00226767 0.00604712
-0.00869274 0.00132281 0.00359048
-0.00510226 -0.0245664 -0.00907068
-0.00907068 -0.0202201 -0.00774788
-0.0126612 0.0381725 0.0166296
-0.0105825 0.0394953 0.0145509
-0.00302356 -0.00170075 -0.00302356
-0.000566918 -0.0340151 -0.0141729
-0.0141729 -0.013795 -0.00699199
0.00321253 -0.0366607 0.000377945
-0.0166296 0.0744552 0.041385
0.00888171 0.0041574 0.0544241
0.0308025 -0.0202201 -0.0451645
0.0398732 -0.000377945 0.0430858
0.020787 0.0096376 0.0103935
-0.0111494 -0.0115273 0.00340151
0.00245664 -0.0162516 0.0323143
-0.00302356 -0.00736993 -0.027779
-0.00548021 -0.0164406 -0.0128501
0.020787 -0.00566918 0.00359048
0.020787 0.000944863 -0.0162516
-0.0041574 -0.00245664 0.0268341
0.0241885 -0.0126612 0.0321253
0.0020787 -0.00396842 0.0398732
0.00075589 -0.00869274 -0.0355268
0.0221098 -0.0270231 0.0566918
0.0578256 -0.062361 -0.0400622
-0.0177634 0.0670853 0.027401
-0.0143619 0.0729434 0.0260782
0.000188973 -0.00566918 -0.00661404
0.00396842 -0.0612271 -0.0255113
-0.0257003 -0.0124722 0.0296687
Vibration 15
-0.000944863 0.00132281 0.000566918
-0.00075589 0.0115273 -0.00793685
-0.00869274 0.0151178 -0.0187083
-0.0164406 0.0096376 -0.0217318
-0.0171965 -0.0020787 -0.0122832
-0.0113384 -0.00472431 -0.0096376
-0.0115273 0.00340151 0.00226767
-0.0141729 -0.0175745 -0.0217318
-0.0154958 -0.027779 -0.0308025
0.0198421 -0.0100155 0.0164406
0.0377945 -0.0181414 0.0249444
0.0308025 -0.013984 0.0181414
0.00548021 -0.00188973 0.00321253
0.0183303 -0.0115273 0.0124722
0.0221098 -0.0130391 0.0170075
-0.0478101 0.0283459 -0.0315584
-0.00982658 0.0183303 -0.0130391
-0.0213539 0.0124722 -0.00888171
-0.0217318 0.000944863 -0.00170075
-0.0109604 -0.00359048 0.00245664
0.000377945 0.00566918 0.0041574
-0.000377945 0.0166296 -0.00434637
-0.0102045 -0.0230547 0.00566918
0.00982658 -0.00831479 0.000377945
0.0228657 -0.00869274 -0.00113384
0.0141729 0.00548021 0.00283459
0.00831479 -0.00642507 0.00377945
0.00774788 0.00510226 0.0120942