[Molden Format]
[FREQ]
-984.9
10.3
18.7
23.4
26.1
27.0
34.2
38.5
43.4
46.1
50.9
52.7
56.9
65.7
70.7
84.5
97.4
122.7
132.5
134.5
141.5
156.1
179.3
201.3
224.6
228.9
232.5
245.0
259.3
274.4
286.2
290.6
316.2
321.7
348.1
356.0
359.2
367.4
372.2
405.8
430.6
450.2
473.3
494.8
519.5
529.6
533.7
540.1
567.1
571.6
580.1
581.6
598.7
615.2
616.0
627.8
637.0
641.7
650.9
677.1
687.8
703.7
727.8
765.0
780.7
809.0
809.3
832.5
880.5
883.1
885.7
899.1
902.1
903.3
911.9
932.3
956.7
962.3
979.2
1009.0
1009.4
1010.4
1017.5
1020.3
1023.0
1025.3
1032.6
1070.2
1080.3
1081.9
1091.9
1104.3
1126.1
1149.6
1161.0
1177.6
1182.4
1184.3
1189.4
1226.3
1260.5
1264.5
1268.0
1271.6
1273.8
1275.6
1279.0
1281.1
1285.7
1293.1
1294.8
1299.2
1300.0
1313.1
1330.6
1342.6
1349.8
1351.2
1358.9
1366.2
1384.7
1398.0
1427.7
1472.1
1494.2
1506.8
1521.4
1524.6
1530.9
1568.8
1571.1
1594.3
1610.3
1632.4
1656.4
1670.4
1694.4
1695.0
1696.7
1702.9
1706.1
1718.9
1859.9
2131.3
2454.4
2651.6
2652.9
2665.5
2672.0
2727.8
2740.0
2741.3
2743.3
2744.4
2746.7
2751.2
2752.0
2760.4
2764.3
2765.7
2766.6
2768.8
2775.0
2778.8
2780.4
       
[FR-COORD]
C -1.51877 -1.88198 -1.17843
C 1.14404 -1.88198 -1.17843
C 2.52826 0.340529 -1.17843
N 1.25062 2.59667 -1.20905
C -1.42051 2.67358 -1.21944
C -2.82627 0.406102 -1.21944
N -2.16827 5.15744 -1.2064
C -5.50118 0.504368 -1.24986
N -7.68797 0.548587 -1.26404
C -2.8482 -4.30517 -1.10587
C -2.30471 -6.15748 -2.92265
C -3.54191 -8.46106 -2.86936
C -5.33224 -8.91233 -0.956201
C -5.88423 -7.09687 0.876077
C -4.63285 -4.78668 0.777433
O -6.39011 -11.2384 -1.12042
C 5.29974 0.329568 -1.13969
C 6.61329 1.38366 0.895163
C 9.23868 1.29692 0.937115
C 10.5643 0.169697 -1.05182
C 9.24057 -0.87929 -3.08347
C 6.61385 -0.807858 -3.12693
C 13.3776 0.102423 -0.987949
C -8.28853 -11.8648 0.675388
C 0.0470542 6.70702 -1.16105
C -4.90233 6.26066 -1.15991
C 2.19133 1.73987 5.5968
C 1.14858 -0.400622 5.75667
C 2.16015 5.11001 -1.16105
C 1.0711 4.04817 5.32393
C -1.58321 3.69063 5.22963
C -2.74294 1.29446 5.40197
C -1.36155 -0.984358 5.6911
O 4.61962 5.6002 -0.841117
O -4.76211 8.57936 -1.11721
O -0.169508 9.10753 -1.14498
H 2.15032 -3.68591 -1.11532
H 5.43844 5.85097 -2.53034
H -0.913871 -5.77122 -4.39626
H -3.16472 -9.91823 -4.26851
H -7.266 -7.44873 2.34893
H -5.05313 -3.34122 2.19076
H 5.57828 2.28241 2.44531
H 10.2614 2.11536 2.52392
H 10.2646 -1.75612 -4.63493
H 5.58546 -1.62857 -4.7109
H 14.0747 -0.873053 0.712238
H 14.1782 2.02314 -0.957335
H 14.2047 -0.870597 -2.62351
H -8.82445 -13.7842 0.0878723
H -9.90594 -10.5844 0.520053
H -7.51336 -11.8864 2.59214
H 1.97779 5.87081 5.18182
H -2.77695 5.35473 5.01495
H -4.79556 1.18278 5.31504
H -2.21722 -2.82382 5.83982
H -2.52297 9.54028 -1.12817

[FR-NORM-COORD]
Vibration 1
-0.00888171 0.00510226 -0.000188973
0.00944863 0.00264562 -0.000566918
0.0062361 -0.0134171 0.00151178
0.0062361 -0.00831479 -0.00132281
0.00472431 0.00869274 -0.000188973
-0.00170075 -0.0105825 -0.000188973
0.0506447 -0.0232436 -0.00113384
-0.000944863 0.00151178 0
-0.000377945 -0.000377945 0
0.000377945 -0.000188973 0.000188973
0.000377945 0 0.000188973
0.000188973 0.000188973 -0.000188973
-0.000188973 -0.000377945 0
0.000188973 0.000188973 0.000188973
-0.000377945 0 0.000188973
0.000188973 0.000377945 0
0.00245664 -0.000566918 0
0.000566918 0 0.000188973
0 0.000377945 0
0.000377945 0 0
0.000377945 0.000188973 -0.000377945
0.00113384 -0.000377945 -0.000377945
-0.000188973 0 0
-0.000188973 0 0
-0.020409 -0.101478 -0.00113384
-0.107336 0.0941084 0.00321253
0.00075589 0 -0.000188973
0 0.000377945 0
0.00812582 0.0236216 0.00170075
-0.000377945 -0.000377945 -0.000188973
0 0.000188973 0
0.000188973 0 0.000188973
0 -0.000188973 0
0.00396842 0.00302356 -0.000944863
-0.0398732 -0.0640617 -0.000377945
-0.0143619 0.075589 0.000944863
-0.00321253 -0.00302356 -0.000377945
0.0202201 -0.013984 0.00170075
-0.000377945 -0.00075589 -0.000377945
-0.000377945 0.000377945 -0.000566918
-0.00075589 0.000188973 -0.000188973
-0.00245664 0.00170075 -0.00075589
0.000377945 -0.00548021 0.00359048
0.000377945 -0.00132281 0.00151178
0.000944863 -0.00113384 -0.000188973
0.000377945 -0.00264562 0.000188973
0.000188973 -0.000377945 0.000377945
0.000944863 -0.000377945 0.000377945
0.000566918 -0.000566918 0.000188973
0 0 -0.000188973
-0.000377945 0 -0.000188973
-0.000188973 -0.000188973 0
-0.00170075 -0.00132281 0.00661404
-0.00377945 0.000566918 -0.00680301
-0.00132281 0.00170075 -0.00283459
0.000377945 0 0.00113384
1.25005 0.116785 -0.00982658
Vibration 2
0.000566918 -0.0130391 0.00188973
0.000566918 -0.0119053 0
-0.000377945 -0.0113384 0.00226767
-0.00113384 -0.0119053 0.00680301
-0.00113384 -0.0128501 0.00982658
-0.000377945 -0.0134171 0.00793685
-0.0020787 -0.0132281 0.0134171
-0.000377945 -0.0141729 0.0124722
-0.000566918 -0.0147399 0.0166296
0.00170075 -0.013984 -0.00548021
0.00188973 -0.00680301 -0.0128501
0.00302356 -0.0075589 -0.0213539
0.00396842 -0.0156847 -0.0222988
0.00396842 -0.0230547 -0.0151178
0.00283459 -0.0219208 -0.00661404
0.00510226 -0.0156847 -0.0308025
-0.000188973 -0.0103935 -0.00151178
0.00226767 -0.0141729 -0.00113384
0.00226767 -0.0130391 -0.00510226
0 -0.00831479 -0.00925966
-0.00245664 -0.00472431 -0.0096376
-0.00245664 -0.00566918 -0.00566918
0.000188973 -0.00718096 -0.0134171
0.00548021 -0.0232436 -0.0330702
-0.00264562 -0.0124722 0.013606
-0.00245664 -0.0143619 0.0183303
0.00151178 0.020976 0.00170075
-0.0381725 0.0402512 0.00283459
-0.0020787 -0.0115273 0.00907068
0.0442196 0.0419519 0.0041574
0.0372276 0.0912738 0.00850377
-0.00718096 0.113006 0.00944863
-0.0491329 0.0871164 0.00680301
-0.00188973 -0.0111494 0.00774788
-0.00321253 -0.0143619 0.0232436
-0.00359048 -0.0124722 0.0177634
0.00132281 -0.0117163 -0.00377945
-0.00340151 -0.00869274 0.00736993
0.000944863 -0.000377945 -0.0119053
0.00302356 -0.00188973 -0.0272121
0.00491329 -0.0294797 -0.0156847
0.00245664 -0.027779 -0.00075589
0.00396842 -0.0177634 0.0020787
0.0041574 -0.0158737 -0.00472431
-0.0041574 -0.000944863 -0.0128501
-0.00434637 -0.00283459 -0.00604712
0.00302356 -0.00888171 -0.0154958
-0.00075589 -0.00680301 -0.0124722
-0.00188973 -0.00510226 -0.0156847
0.00566918 -0.020787 -0.0408181
0.00529123 -0.0228657 -0.0272121
0.00604712 -0.0311805 -0.0332592
0.0776677 0.0251334 0.00226767
0.0680301 0.113762 0.0113384
-0.00944863 0.1508 0.0120942
-0.0833369 0.103368 0.00850377
-0.00340151 -0.0134171 0.0215429
Vibration 3
-0.00453534 -0.00510226 0.00340151
-0.00472431 -0.00453534 0.00283459
-0.00491329 -0.0041574 0.00264562
-0.00548021 -0.00453534 0.000566918
-0.00566918 -0.00529123 0.00510226
-0.00510226 -0.00566918 0.00736993
-0.00661404 -0.00566918 0.00453534
-0.00529123 -0.00680301 0.0132281
-0.00529123 -0.00831479 0.0187083
-0.00453534 -0.00548021 -0.00226767
-0.013606 0.00472431 -0.0153068
-0.0162516 0.00585815 -0.0241885
-0.00925966 -0.00321253 -0.0198421
0.000944863 -0.013984 -0.0062361
0.00321253 -0.0147399 0.00264562
-0.013606 -0.000566918 -0.0304246
-0.00510226 -0.00566918 0.00604712
-0.00604712 0.0120942 -0.00245664
-0.0062361 0.0075589 0.00264562
-0.00510226 -0.0149288 0.0160627
-0.00396842 -0.0321253 0.0241885
-0.00377945 -0.027401 0.0192752
-0.00548021 -0.0213539 0.0222988
-0.00944863 -0.00793685 -0.0285349
-0.00718096 -0.00472431 -0.00245664
-0.00680301 -0.00680301 0.0100155
0.0291018 0.0927855 0.0219208
0.0788016 0.0668963 0
-0.00642507 -0.00396842 -0.00604712
-0.0226767 0.0680301 0.0268341
-0.013606 0.00604712 0.00359048
0.041574 -0.0224877 -0.020787
0.0929745 0.00812582 -0.0247554
-0.00566918 -0.00170075 -0.0164406
-0.00774788 -0.00680301 0.00718096
-0.00812582 -0.00491329 -0.00472431
-0.00453534 -0.00453534 0.00226767
-0.0128501 -0.0020787 -0.0200311
-0.0190862 0.0120942 -0.0185193
-0.0236216 0.013795 -0.034393
0.00699199 -0.0213539 -0.00245664
0.0107714 -0.0226767 0.0128501
-0.0062361 0.0294797 -0.0126612
-0.00736993 0.0211649 -0.00377945
-0.00321253 -0.0495108 0.034582
-0.00264562 -0.0410071 0.0255113
-0.0122832 -0.0247554 0.0232436
-0.000566918 -0.0234326 0.0260782
-0.00396842 -0.0219208 0.0234326
-0.0162516 -0.00264562 -0.0400622
-0.00661404 -0.00283459 -0.0141729
-0.00302356 -0.0232436 -0.0313695
-0.0642507 0.089951 0.0447865
-0.0512116 -0.020976 0.0041574
0.0449755 -0.0701088 -0.0376055
0.135304 -0.0132281 -0.0453534
-0.00850377 -0.00585815 0.000566918
Vibration 4
-0.00434637 -0.00245664 0.0041574
-0.00434637 0.00113384 0.0143619
-0.00661404 0.00264562 0.0122832
-0.00907068 0.00113384 0.00736993
-0.00907068 -0.00226767 -0.00321253
-0.00661404 -0.00359048 -0.00888171
-0.0124722 -0.00321253 -0.0075589
-0.00642507 -0.00585815 -0.0323143
-0.0062361 -0.00736993 -0.0544241
-0.00302356 -0.00302356 0.00548021
0.0190862 -0.0156847 0.0247554
0.0173855 -0.0147399 0.0243775
-0.0075589 -0.00113384 0.0041574
-0.0287238 0.0105825 -0.013795
-0.0257003 0.00907068 -0.0128501
-0.00793685 -0.000944863 0.00529123
-0.00661404 0.00529123 0.0105825
-0.0041574 0.0109604 0.00585815
-0.00396842 0.0145509 0.00151178
-0.00604712 0.0122832 0.00151178
-0.00831479 0.00585815 0.0062361
-0.00850377 0.00226767 0.0109604
-0.00566918 0.0168186 -0.00377945
-0.0374166 0.0153068 -0.0202201
-0.0147399 -0.000188973 -0.000377945
-0.0141729 -0.00680301 -0.020598
0.0496998 -0.0294797 0.0391173
0.0304246 -0.0222988 0.0102045
-0.0126612 0.00245664 0.00850377
0.0719986 -0.0181414 0.0428968
0.0701088 0.00434637 0.00944863
0.048566 0.0124722 -0.0226767
0.0264562 -0.00113384 -0.0245664
-0.0145509 0.00661404 0.0175745
-0.0175745 -0.00661404 -0.0238105
-0.0179524 -0.000566918 -0.00340151
-0.00226767 0.00245664 0.0222988
-0.00812582 0.00510226 0.020409
0.0374166 -0.0260782 0.0393063
0.034582 -0.0241885 0.0389284
-0.0470542 0.020787 -0.0285349
-0.0421409 0.0175745 -0.0262672
-0.0020787 0.0130391 0.00604712
-0.00226767 0.0190862 -0.00188973
-0.0100155 0.00359048 0.00642507
-0.0102045 -0.00245664 0.0145509
-0.00075589 0.0264562 -0.000377945
-0.00869274 0.0181414 -0.0151178
-0.0075589 0.00982658 -0.000566918
-0.0328812 0.0126612 -0.0158737
-0.0321253 0.0181414 -0.0538572
-0.0674632 0.0262672 -0.00793685
0.0882502 -0.0245664 0.0663294
0.0865495 0.0158737 0.00812582
0.048566 0.0300466 -0.0472432
0.0096376 0.00453534 -0.0504557
-0.0187083 -0.00377945 -0.0145509
Vibration 5
0.00226767 0.000566918 0.0160627
0.0020787 0.00226767 0.0115273
0.000377945 0.00340151 0.00548021
-0.00170075 0.00226767 -0.00226767
-0.00188973 0.000188973 0.00453534
0 -0.000944863 0.0202201
-0.00377945 -0.000377945 -0.0096376
-0.000377945 -0.00396842 0.0419519
-0.000566918 -0.00680301 0.0636838
0.00264562 0 0.0100155
-0.0162516 0.0173855 -0.0132281
-0.0222988 0.020409 -0.02759
-0.00831479 0.00566918 -0.0179524
0.013606 -0.0132281 0.00718096
0.0187083 -0.0153068 0.0211649
-0.0187083 0.0115273 -0.0360938
0.000377945 0.00585815 0.00736993
-0.0020787 0.0247554 -0.00075589
-0.0020787 0.027401 0.00226767
0.00075589 0.0105825 0.013606
0.00321253 -0.00907068 0.0221098
0.00321253 -0.0113384 0.0190862
0.000566918 0.0132281 0.0170075
-0.00982658 0 -0.0309915
-0.00510226 0.00170075 -0.0268341
-0.00510226 -0.00170075 -0.0221098
0.0153068 -0.0359048 0.00264562
-0.00132281 -0.0255113 0.0313695
-0.00377945 0.00340151 -0.020598
0.0325033 -0.0300466 -0.0183303
0.0292908 -0.0096376 -0.00302356
0.0107714 0.00151178 0.0292908
-0.00642507 -0.0062361 0.0495108
-0.00321253 0.00793685 -0.0321253
-0.00661404 -0.00132281 -0.0434637
-0.00680301 0.00170075 -0.0457314
0.00302356 0.00283459 0.0128501
-0.00907068 -0.00226767 -0.0364717
-0.0272121 0.0292908 -0.020409
-0.0379835 0.034204 -0.0461093
0.0258892 -0.0257003 0.0158737
0.0351489 -0.0289128 0.0398732
-0.00377945 0.0370386 -0.00925966
-0.0041574 0.0423299 -0.00396842
0.00529123 -0.0226767 0.0311805
0.00529123 -0.0266451 0.0255113
-0.00075589 0.020787 0.0221098
-0.00075589 0.013795 0.0100155
0.00321253 0.00680301 0.0221098
-0.0251334 0.0105825 -0.0514005
-0.00359048 0.0111494 -0.00321253
0.00359048 -0.0287238 -0.0366607
0.0461093 -0.0387394 -0.0425188
0.0417629 -0.00245664 -0.0166296
0.00944863 0.0170075 0.0394953
-0.020598 0.00245664 0.0750221
-0.00718096 0 -0.0498888
Vibration 6
-0.0141729 0.0147399 -0.013606
-0.0141729 0.0130391 -0.013984
-0.0119053 0.0117163 -0.00944863
-0.0100155 0.0126612 -0.00718096
-0.0102045 0.0145509 -0.00566918
-0.0124722 0.0156847 -0.00812582
-0.00831479 0.0151178 -0.00132281
-0.0122832 0.0171965 -0.00377945
-0.0122832 0.0181414 0.000377945
-0.0109604 0.0130391 -0.0151178
-0.00944863 0.0166296 -0.0185193
0.00661404 0.00831479 -0.0109604
0.0215429 -0.00377945 0.000188973
0.0149288 -0.00472431 -0.00113384
-0.00188973 0.0041574 -0.00907068
0.0425188 -0.0141729 0.0111494
-0.0120942 0.00359048 -0.00321253
-0.0126612 0.00850377 -0.00548021
-0.0134171 -0.0105825 0.00604712
-0.0134171 -0.034771 0.0198421
-0.0126612 -0.0368497 0.020409
-0.0119053 -0.0175745 0.00888171
-0.0145509 -0.0610381 0.0355268
0.0708647 -0.034771 0.0340151
-0.00718096 0.0134171 -0.000944863
-0.0075589 0.0171965 0.00113384
0.0151178 -0.0222988 0.00283459
0.00170075 -0.0164406 -0.00642507
-0.00831479 0.0119053 -0.00472431
0.0298577 -0.0145509 0.00736993
0.0279679 0.0020787 0
0.0128501 0.00869274 -0.0102045
-0.00188973 -0.00075589 -0.013984
-0.00736993 0.00982658 -0.00850377
-0.00585815 0.0170075 0.00396842
-0.00548021 0.013606 0.00264562
-0.0156847 0.0119053 -0.0166296
-0.0105825 0.0128501 -0.00944863
-0.0196532 0.0255113 -0.0258892
0.00888171 0.0102045 -0.0124722
0.0228657 -0.0122832 0.00472431
-0.00699199 0.00340151 -0.00982658
-0.0122832 0.0258892 -0.0153068
-0.0141729 -0.00774788 0.00510226
-0.0126612 -0.0542351 0.0302356
-0.0111494 -0.0198421 0.0096376
-0.0349599 -0.0927855 0.0260782
0.0041574 -0.0695419 0.0684081
-0.013606 -0.0453534 0.0266451
0.0903289 -0.0436527 0.0451645
0.0519675 -0.0568808 0.0478101
0.0918407 -0.0188973 0.0257003
0.041196 -0.0196532 0.0151178
0.0387394 0.0102045 0.00245664
0.0122832 0.0215429 -0.0151178
-0.0134171 0.0041574 -0.0217318
-0.00510226 0.0153068 0.0041574
Vibration 7
-0.00396842 -0.00151178 -0.0107714
-0.0041574 -0.00472431 -0.00566918
-0.00302356 -0.00566918 0.0041574
-0.00151178 -0.00472431 0.0096376
-0.00132281 -0.00188973 -0.00548021
-0.00264562 -0.00113384 -0.0124722
0.00132281 -0.00113384 -0.00888171
-0.00264562 -0.0020787 -0.0198421
-0.00264562 -0.00434637 -0.0258892
-0.00793685 0.000188973 -0.0117163
-0.0385504 0.0130391 -0.0334482
-0.0406291 0.0141729 -0.0300466
-0.00944863 0.00245664 -0.00359048
0.0196532 -0.00888171 0.0166296
0.0194642 -0.00888171 0.0117163
-0.0126612 0.00359048 -0.00113384
-0.00302356 -0.00472431 0.00321253
-0.00283459 -0.0325033 0.0173855
-0.00264562 -0.02759 0.0128501
-0.00283459 0.00642507 -0.00661404
-0.00302356 0.034393 -0.020787
-0.00340151 0.0283459 -0.0158737
-0.00245664 0.0147399 -0.0132281
0.0294797 -0.0143619 0.0372276
0.00264562 -0.00377945 0.00944863
0.00188973 0.00226767 -0.0436527
0.00850377 0.0115273 0.0381725
0.0124722 0.0102045 0.0462983
0.00113384 -0.00604712 0.0226767
0.00585815 0.00661404 0.00907068
0.0075589 -0.000377945 -0.0115273
0.0115273 -0.00170075 -0.00245664
0.0143619 0.00396842 0.0283459
-0.00151178 -0.0100155 0.0491329
0.00434637 0.0020787 -0.0464873
0.00529123 -0.00340151 0.00944863
-0.0062361 -0.00604712 -0.0109604
0.0168186 -0.0100155 0.0580146
-0.0608492 0.0221098 -0.0521564
-0.0650066 0.0236216 -0.0464873
0.0423299 -0.0173855 0.0355268
0.041574 -0.0164406 0.0257003
-0.00283459 -0.0568808 0.0313695
-0.00226767 -0.0495108 0.0239995
-0.00321253 0.0608492 -0.0359048
-0.00377945 0.0498888 -0.0266451
0.00566918 0.0196532 -0.013795
-0.00907068 0.0175745 -0.0183303
-0.00359048 0.0149288 -0.013984
0.0215429 -0.0115273 0.0355268
0.0224877 -0.0175745 0.082581
0.0725655 -0.0257003 0.0196532
0.00302356 0.0075589 0.00170075
0.00548021 -0.00491329 -0.0355268
0.0126612 -0.00699199 -0.0196532
0.0173855 0.00321253 0.0355268
0.00566918 -0.000566918 -0.0190862
Vibration 8
0.00869274 -0.0075589 -0.0255113
0.00831479 -0.00453534 -0.027779
0.00529123 -0.00226767 -0.0228657
0.00188973 -0.00396842 -0.0200311
0.00170075 -0.00774788 -0.0147399
0.00510226 -0.00944863 -0.0226767
-0.00264562 -0.00925966 0.0020787
0.00491329 -0.0149288 -0.0285349
0.00491329 -0.0202201 -0.0370386
0.00529123 -0.00566918 -0.0160627
-0.0251334 -0.00491329 -0.0249444
-0.0374166 0.00151178 -0.0141729
-0.0171965 0.00793685 0.00604712
0.0153068 0.00699199 0.0170075
0.0258892 0.000377945 0.00529123
-0.034582 0.0151178 0.013795
0.00510226 0.00283459 -0.00944863
-0.00925966 0.0171965 -0.00718096
-0.00944863 0.0239995 0.0100155
0.00566918 0.0156847 0.0247554
0.020598 0.000566918 0.0228657
0.020409 -0.00566918 0.00566918
0.00529123 0.0232436 0.0432747
-0.013984 0.0226767 0.0383614
-0.00529123 -0.00585815 0.00396842
-0.00434637 -0.0153068 0.0398732
0.00944863 -0.0107714 -0.00925966
0.000944863 -0.00604712 0
-0.00264562 -0.00226767 -0.0120942
0.0188973 -0.0075589 -0.0188973
0.0173855 0.00283459 -0.0170075
0.00774788 0.00831479 -0.00661404
-0.00151178 0.00396842 0.00340151
-0.0020787 0.00188973 -0.0230547
-0.00850377 -0.0154958 0.0627389
-0.0096376 -0.0062361 0.0222988
0.0100155 -0.00359048 -0.0311805
-0.0120942 0.0128501 -0.0262672
-0.0400622 -0.00982658 -0.0402512
-0.062361 0.0020787 -0.0215429
0.0319364 0.0113384 0.0336371
0.0502667 0.000944863 0.0119053
-0.020409 0.0230547 -0.0181414
-0.0215429 0.0355268 0.0117163
0.0321253 -0.0062361 0.034393
0.0325033 -0.0171965 0.00396842
-0.00283459 0.0398732 0.0561249
0 0.0257003 0.0317474
0.0183303 0.0113384 0.0568808
-0.0351489 0.0281569 0.0400622
-0.0075589 0.0340151 0.0646286
0.0124722 0.0117163 0.02759
0.0260782 -0.0117163 -0.0266451
0.0239995 0.00680301 -0.0234326
0.00718096 0.0162516 -0.00585815
-0.00869274 0.00812582 0.0126612
-0.0103935 -0.0109604 0.047999
Vibration 9
-0.0100155 -0.00113384 -0.00283459
-0.0096376 -0.00793685 -0.00566918
-0.0041574 -0.0117163 -0.00377945
0.00113384 -0.00850377 -0.00491329
0.00170075 -0.00113384 0.00075589
-0.0041574 0.00226767 0.00453534
0.00888171 0.00113384 0.000377945
-0.00396842 0.0107714 0.0188973
-0.00396842 0.0187083 0.0334482
-0.013795 0.000566918 -0.00566918
-0.0120942 0.00075589 -0.00566918
-0.00774788 -0.00151178 -0.00396842
-0.00491329 -0.00453534 -0.0020787
-0.0105825 -0.00302356 -0.00548021
-0.0153068 -0.000566918 -0.00736993
0.00340151 -0.00869274 0.00245664
-0.0041574 -0.0117163 0.00264562
-0.0120942 -0.00793685 0.00604712
-0.0117163 0.00793685 0.00831479
-0.00340151 0.0194642 0.00736993
0.00434637 0.0105825 0.00680301
0.00377945 -0.00529123 0.00453534
-0.00264562 0.0523454 0.000944863
0.0188973 -0.0190862 0.0153068
0.013606 -0.00510226 -0.00736993
0.0126612 0.0096376 0.00661404
-0.00321253 -0.00699199 0.0211649
-0.0075589 -0.0075589 -0.013795
0.00888171 -0.0111494 -0.0109604
0.00245664 -0.00226767 0.0381725
0.00283459 0.00226767 0.00907068
-0.0020787 0.00188973 -0.0298577
-0.00774788 -0.00340151 -0.0440306
0.0113384 -0.0177634 -0.020787
0.0198421 0.00925966 0.00340151
0.0211649 -0.00453534 -0.0105825
-0.013984 -0.0105825 -0.00793685
0.00548021 -0.0215429 -0.0241885
-0.0134171 0.00245664 -0.00642507
-0.00548021 -0.00151178 -0.00340151
-0.0111494 -0.00377945 -0.00604712
-0.0200311 0.000188973 -0.0096376
-0.0187083 -0.0151178 0.00585815
-0.0181414 0.0130391 0.00982658
0.0109604 0.0173855 0.00736993
0.0100155 -0.0109604 0.00340151
0.0232436 0.254357 0.105447
-0.027779 0.0670853 -0.222421
-0.00226767 -0.122265 0.105069
0.0296687 -0.0243775 0.0224877
0.00850377 -0.0313695 0.0221098
0.0304246 -0.00944863 0.0109604
0.00604712 -0.00188973 0.0684081
0.00699199 0.00642507 0.0173855
-0.00132281 0.00566918 -0.0502667
-0.0111494 -0.0041574 -0.0735103
0.0222988 0.00283459 -0.00434637
Vibration 10
-0.00170075 -0.00340151 -0.00510226
-0.00132281 -0.00529123 -0.0145509
-0.000377945 -0.0062361 -0.0130391
0.000944863 -0.00548021 -0.0105825
0.00132281 -0.00302356 -0.00283459
-0.000188973 -0.00226767 0.00453534
0.00396842 -0.00226767 -0.00264562
-0.000377945 0.00151178 0.0270231
-0.000377945 0.00566918 0.0498888
-0.00321253 -0.00264562 -0.00264562
-0.00359048 -0.00566918 0.000377945
-0.00434637 -0.00529123 0.00321253
-0.00529123 -0.0020787 0.00302356
-0.00548021 0.000944863 0
-0.00453534 0.000188973 -0.00302356
-0.00585815 -0.0020787 0.00661404
-0.000188973 -0.00188973 -0.0075589
-0.0111494 -0.0162516 0.00718096
-0.0111494 -0.00699199 0.0156847
-0.000188973 0.0187083 0.00831479
0.0107714 0.0340151 -0.00642507
0.0103935 0.0232436 -0.0143619
-0.000377945 0.020787 0.0234326
-0.00510226 0.00075589 0.00831479
0.00566918 -0.00434637 -0.00944863
0.00548021 0.000566918 0.00245664
-0.00151178 -0.00529123 0.0257003
-0.00585815 -0.00566918 -0.00642507
0.00396842 -0.00661404 -0.013795
0.00434637 -0.00151178 0.034393
0.00510226 0.00245664 0.000188973
0.000188973 0.00226767 -0.0357158
-0.00585815 -0.0020787 -0.0410071
0.00529123 -0.0105825 -0.0179524
0.00793685 0.000566918 -0.000188973
0.00831479 -0.0041574 -0.0120942
-0.0020787 -0.00585815 -0.020598
0.00302356 -0.0126612 -0.0194642
-0.00302356 -0.00850377 0
-0.00434637 -0.00736993 0.00529123
-0.00642507 0.00377945 -0.000188973
-0.00529123 0.0020787 -0.00510226
-0.0198421 -0.0334482 0.0111494
-0.0196532 -0.0194642 0.027779
0.0194642 0.0534792 -0.0117163
0.0190862 0.034771 -0.0258892
-0.0202201 -0.208815 -0.0992106
0.000188973 0.0154958 0.291018
0.0175745 0.24094 -0.0984547
-0.00472431 -0.000566918 0.0119053
-0.00566918 0 0.0062361
-0.00472431 0.00453534 0.00812582
0.00793685 -0.00132281 0.062172
0.00944863 0.00585815 0.00170075
0.000944863 0.00566918 -0.0604712
-0.00944863 -0.00245664 -0.0676522
0.00869274 -0.00170075 -0.00661404
Vibration 11
0.00472431 0.00132281 -0.00718096
0.00491329 0.00642507 -0.0194642
0.000377945 0.00888171 -0.0194642
-0.00321253 0.00642507 -0.0128501
-0.00321253 0.00188973 -0.00566918
0.00075589 -0.000566918 0.000944863
-0.00699199 0.00075589 -0.00151178
0.000377945 -0.00377945 0.0211649
0.000188973 -0.00566918 0.0410071
0.0100155 -0.000944863 -0.000188973
0.0187083 -0.00831479 0.0096376
0.0190862 -0.00850377 0.0132281
0.00925966 -0.00075589 0.00566918
0.00377945 0.00453534 -0.00113384
0.00510226 0.00359048 -0.00340151
0.00661404 0.000377945 0.00736993
0.000566918 0.0113384 -0.0175745
-0.0062361 -0.0238105 0.00491329
-0.00718096 -0.0410071 0.020787
-0.00132281 -0.0190862 0.0120942
0.00548021 0.027779 -0.0166296
0.00604712 0.0421409 -0.0313695
-0.00226767 -0.0410071 0.0309915
-0.0228657 0.0190862 -0.0171965
-0.00925966 0.00434637 -0.00245664
-0.00869274 -0.00396842 0.00566918
0.00359048 0.0041574 0.0224877
0.00377945 0.00510226 0.0357158
-0.00661404 0.0075589 -0.00774788
0.00453534 0 -0.0175745
0.00604712 -0.00359048 -0.0428968
0.0062361 -0.00264562 -0.0279679
0.00510226 0.00188973 0.013984
-0.00718096 0.00736993 -0.00359048
-0.0128501 -0.00377945 0.00982658
-0.013606 0.00396842 0.00132281
0.00888171 0.00831479 -0.0266451
-0.00548021 0.0134171 -0.00170075
0.0245664 -0.013606 0.013795
0.0258892 -0.013795 0.020598
-0.000944863 0.00907068 -0.00453534
0.0020787 0.00661404 -0.00736993
-0.0107714 -0.0393063 0.0105825
-0.0122832 -0.0719986 0.0400622
0.0103935 0.0512116 -0.0266451
0.0111494 0.0754001 -0.0517785
-0.0151178 0.0568808 0.0918407
0.0103935 -0.0440306 -0.0818251
-0.00283459 -0.14532 0.0927855
-0.027779 0.020787 -0.0185193
-0.0120942 0.0294797 -0.0436527
-0.0495108 0.0198421 -0.00642507
0.00453534 -0.000944863 -0.0291018
0.00680301 -0.00718096 -0.0752111
0.00718096 -0.00529123 -0.0493218
0.00491329 0.00283459 0.0249444
-0.0145509 -0.000188973 0.00680301
Vibration 12
-0.0141729 0.00245664 0.00661404
-0.013795 -0.00491329 0.0145509
-0.00793685 -0.00907068 0.00491329
-0.0020787 -0.00585815 -0.00585815
-0.00151178 0.00245664 -0.000377945
-0.00774788 0.00585815 -0.00113384
0.00680301 0.00510226 -0.000377945
-0.00736993 0.013795 -0.0190862
-0.00699199 0.0211649 -0.0385504
-0.0153068 0.00302356 0.00075589
0.00548021 0.000377945 0.00888171
0.0158737 -0.00491329 0.00585815
0.00377945 -0.00774788 -0.00585815
-0.020976 -0.00340151 -0.0177634
-0.0296687 0.00170075 -0.0134171
0.020787 -0.0154958 -0.00510226
-0.00812582 -0.0115273 0.00491329
-0.00869274 -0.00434637 0.00170075
-0.00831479 0.00793685 -0.00434637
-0.00774788 0.0122832 -0.00680301
-0.00774788 -0.000944863 0
-0.00812582 -0.0126612 0.00585815
-0.00718096 0.0300466 -0.0154958
0.0151178 -0.0239995 -0.0143619
0.0124722 -0.00188973 -0.0156847
0.0119053 0.0145509 0.0440306
0.000188973 0.00907068 0.048566
0.00283459 0.0107714 0.0888171
0.00699199 -0.00888171 -0.0194642
-0.00170075 -0.000566918 -0.0251334
0.000566918 -0.00907068 -0.0510226
0.00377945 -0.0075589 -0.00661404
0.00510226 0.00283459 0.0685971
0.0103935 -0.0162516 -0.0355268
0.0202201 0.0141729 0.0472432
0.0211649 -0.00113384 -0.0196532
-0.0187083 -0.00718096 0.0258892
0.00188973 -0.027401 -0.041385
0.0149288 0.00245664 0.0183303
0.0336371 -0.0075589 0.0134171
-0.0326923 -0.00472431 -0.0289128
-0.0457314 0.00340151 -0.0200311
-0.00944863 -0.00680301 0.00245664
-0.00812582 0.0151178 -0.00812582
-0.00736993 -0.00075589 0.000188973
-0.00831479 -0.0215429 0.0103935
0.00170075 -0.0181414 -0.0464873
-0.0187083 0.0338261 0.0423299
-0.0041574 0.0856046 -0.0470542
0.0370386 -0.0321253 -0.00793685
0.0041574 -0.0398732 -0.0319364
0.0020787 -0.00680301 -0.00888171
-0.00396842 -0.00188973 -0.0591484
-0.00075589 -0.0173855 -0.107714
0.00510226 -0.0143619 -0.0308025
0.00699199 0.00453534 0.100155
0.0222988 0.00699199 0.0132281
Vibration 13
0.000566918 0 -0.013984
0.00075589 0.000188973 -0.0168186
-0.000566918 0.00075589 -0.0219208
-0.00113384 0 -0.0226767
-0.000944863 0 -0.0156847
-0.000188973 -0.000377945 -0.0149288
-0.000188973 0.000188973 -0.0158737
-0.000188973 -0.00151178 -0.0232436
0 -0.00264562 -0.034582
0.00170075 -0.000377945 -0.0105825
0.00548021 -0.00510226 -0.00472431
0.00680301 -0.00566918 -0.000377945
0.00359048 -0.00113384 -0.00226767
-0.000188973 0.00340151 -0.00793685
-0.00075589 0.00359048 -0.0117163
0.00529123 -0.00226767 0.00264562
-0.000566918 0.00321253 -0.0188973
-0.00925966 -0.0181414 -0.0020787
-0.00982658 -0.0245664 0.0111494
-0.00188973 -0.0062361 0.00585815
0.00680301 0.0228657 -0.0149288
0.00699199 0.0268341 -0.0270231
-0.00245664 -0.0160627 0.0221098
-0.00264562 0.00453534 -0.00321253
0.000566918 0 -0.0302356
0.000377945 0.000377945 0.0100155
-0.000188973 0.00680301 0.0222988
0.00604712 0.00283459 0.0109604
0.000188973 -0.000377945 -0.034393
-0.00925966 0.00869274 0.075589
-0.0103935 0.00585815 0.118864
-0.00321253 0.00151178 0.106392
0.00585815 -0.000566918 0.048566
0.0020787 -0.00302356 -0.0453534
0.000944863 0.000377945 0.00604712
0.00075589 0 -0.0381725
0.00132281 0.00075589 -0.0156847
-0.00359048 -0.0122832 -0.0495108
0.00736993 -0.00831479 -0.00377945
0.00982658 -0.00944863 0.00434637
-0.00226767 0.00661404 -0.00925966
-0.00245664 0.00680301 -0.0154958
-0.0158737 -0.0302356 0.000188973
-0.0162516 -0.0438416 0.0251334
0.0132281 0.041196 -0.020976
0.0134171 0.0474321 -0.0417629
-0.013984 0.0041574 0.0381725
0.00321253 -0.0179524 0.00075589
0.00264562 -0.0404401 0.0391173
-0.000944863 0.00283459 0.000944863
-0.00132281 0.00491329 -0.0143619
-0.0107714 0.0107714 0
-0.0147399 0.0119053 0.0850377
-0.0168186 0.00680301 0.163083
-0.00434637 -0.00113384 0.141729
0.0111494 -0.00396842 0.0372276
0.00132281 0.000188973 -0.0170075
Vibration 14
0.0122832 0.00283459 0.0258892
0.0115273 0.00718096 0.0334482
0.00699199 0.0102045 0.0183303
0.00340151 0.0075589 0.00736993
0.00302356 0.00245664 0.00812582
0.00774788 -0.000188973 0.0109604
-0.00151178 0.00113384 -0.00340151
0.0075589 -0.0107714 -0.013606
0.0075589 -0.0228657 -0.0398732
0.0134171 0.0020787 0.0226767
-0.00396842 0.0170075 0.00264562
-0.0109604 0.020598 -0.00907068
0.00245664 0.00869274 0.00075589
0.0241885 -0.00774788 0.0236216
0.027779 -0.00925966 0.0328812
-0.0100155 0.0156847 -0.0164406
0.00699199 0.0103935 0.00642507
0.0188973 0.00585815 0.00075589
0.0190862 -0.00718096 -0.0103935
0.00566918 -0.0153068 -0.0149288
-0.00699199 -0.00585815 -0.0115273
-0.00642507 0.00718096 -0.00075589
0.00548021 -0.0355268 -0.0247554
0.00585815 0.00264562 -0.0041574
-0.0041574 0.00566918 -0.0221098
-0.00321253 -0.00548021 0.0336371
-0.0211649 -0.00907068 0.05518
-0.02759 -0.00888171 0.0177634
-0.00113384 0.00925966 -0.013984
-0.0128501 -0.00548021 0.0521564
-0.0115273 -0.00113384 -0.00548021
-0.0185193 -0.000944863 -0.048566
-0.0272121 -0.00472431 -0.0374166
-0.00132281 0.0147399 -0.0202201
-0.00812582 -0.00491329 0.0234326
-0.00944863 0.00529123 -0.0423299
0.0145509 0.00925966 0.0459203
-0.00245664 -0.00226767 -0.0234326
-0.0132281 0.0262672 -0.00359048
-0.0272121 0.0325033 -0.0260782
0.0368497 -0.0185193 0.0328812
0.0398732 -0.0185193 0.0455424
0.0279679 0.00944863 0.00453534
0.0298577 -0.0122832 -0.0147399
-0.0173855 -0.00944863 -0.0162516
-0.0171965 0.0132281 0.00283459
0.00491329 -0.0279679 -0.0202201
0.0196532 -0.041196 -0.0423299
-0.00774788 -0.0540462 -0.020598
-0.0124722 0.013984 -0.0247554
0.0117163 0.0145509 0.0317474
0.027401 -0.0283459 -0.0132281
-0.00812582 -0.00548021 0.0871164
-0.00491329 0.00226767 -0.0162516
-0.0168186 0.00264562 -0.0918407
-0.0319364 -0.00491329 -0.0668963
-0.0100155 0 -0.013795
Vibration 15
0.00736993 -0.000944863 -0.0311805
0.00699199 0.00132281 -0.0410071
0.0062361 0.00226767 -0.0258892
0.00548021 0.00226767 -0.0105825
0.00510226 -0.00075589 -0.00869274
0.0062361 -0.00113384 -0.0143619
0.00132281 -0.0020787 0.00718096
0.00604712 0 0.00869274
0.00585815 0.00170075 0.0330702
0.00888171 -0.00132281 -0.0243775
0.00850377 -0.0120942 -0.0130391
0.00812582 -0.0119053 0.000944863
0.00680301 0.000377945 0.00245664
0.00774788 0.0111494 -0.00774788
0.00944863 0.00925966 -0.020598
0.00491329 0.000188973 0.0179524
0.00548021 -0.0020787 -0.0211649
0.00510226 0.0309915 -0.0376055
0.00529123 0.0340151 -0.0381725
0.00548021 -0.00396842 -0.0166296
0.00548021 -0.0464873 0.00529123
0.00585815 -0.0434637 0.00226767
0.00548021 -0.00188973 -0.0162516
-0.013795 0.0245664 0.00699199
-0.00132281 0.00075589 0.0243775
-0.00132281 -0.00585815 -0.0370386
-0.020598 0.00226767 0.0778567
-0.0221098 0.0020787 0.0651955
0.000944863 0.00377945 0.00925966
-0.0177634 0.00075589 0.0544241
-0.0160627 -0.00132281 0.00774788
-0.0173855 -0.00170075 -0.00812582
-0.020598 0.000188973 0.0217318